Protein in water
78490
    1DC     O5'    1   3.011   4.336   3.321 -0.2320 -0.5003  0.9380
    1DC     H5T    2   3.016   4.403   3.389 -1.1929 -0.1577  0.6935
    1DC     C5'    3   2.879   4.287   3.319 -0.2496 -0.4352 -0.0855
    1DC    H5'1    4   2.827   4.335   3.235 -1.8637 -2.3847 -0.2902
    1DC    H5'2    5   2.816   4.306   3.406  0.8305 -1.0047  0.8389
    1DC     C4'    6   2.879   4.139   3.283 -0.6333 -0.4485 -0.0349
    1DC     H4'    7   2.776   4.109   3.262 -0.3668  0.0872 -2.3567
    1DC     O4'    8   2.953   4.123   3.165  0.0836 -0.2692  0.3862
    1DC     C1'    9   3.036   4.009   3.167 -0.0843 -0.4007 -0.1275
    1DC     H1'   10   3.008   3.950   3.079  1.4857  0.9393 -1.5816
    1DC      N1   11   3.182   4.026   3.161 -0.0913 -0.2095  0.2856
    1DC      C6   12   3.248   4.119   3.237  0.0593  0.1249 -0.2435
    1DC      H6   13   3.188   4.175   3.308 -0.2862 -1.6804  0.9610
    1DC      C5   14   3.381   4.135   3.224  0.0718  0.0809 -0.1760
    1DC      H5   15   3.436   4.213   3.274 -0.0508  1.1668 -1.6483
    1DC      C4   16   3.451   4.048   3.135  0.1387  0.3604 -0.4006
    1DC      N4   17   3.582   4.067   3.112  0.1444  0.8800  0.0502
    1DC     H41   18   3.630   4.131   3.173 -0.3331  0.5076  0.8323
    1DC     H42   19   3.642   3.989   3.089  2.5106  2.4896  0.4157
    1DC      N3   20   3.388   3.958   3.057  0.2560 -0.3089  0.2662
    1DC      C2   21   3.254   3.945   3.076  0.0474  0.6718 -0.4557
    1DC      O2   22   3.200   3.847   3.025  0.4048  0.0223  0.3890
    1DC     C3'   23   2.947   4.048   3.385  0.0623 -0.0202 -0.1137
    1DC     H3'   24   3.026   4.102   3.438  0.5251 -1.4602  0.7360
    1DC     C2'   25   2.999   3.936   3.295 -0.5670 -0.2567 -0.1835
    1DC    H2'1   26   3.090   3.904   3.346 -1.0090 -0.3232  0.5848
    1DC    H2'2   27   2.927   3.855   3.280 -0.9773  0.4654 -2.3387
    1DC     O3'   28   2.849   3.995   3.471  0.0030  0.0683 -0.1268
    2DG       P   29   2.883   3.956   3.623 -0.2094  0.0187 -0.0919
    2DG     O1P   30   2.746   3.924   3.670 -0.2381  0.2047 -0.0477
    2DG     O2P   31   2.964   4.064   3.683  0.1089 -0.3342  0.1193
    2DG     O5'   32   2.978   3.827   3.606  0.2283  0.3772 -0.3892
    2DG     C5'   33   2.924   3.703   3.565  0.1454  0.4138 -0.3913
    2DG    H5'1   34   2.872   3.720   3.470  2.3498 -2.0833 -2.1726
    2DG    H5'2   35   2.852   3.678   3.643  0.2651  2.5406  0.4947
    2DG     C4'   36   3.035   3.603   3.536 -0.0611 -0.0112  0.2585
    2DG     H4'   37   2.981   3.512   3.509 -2.3410  1.4594 -0.4282
    2DG     O4'   38   3.107   3.646   3.423  0.2615 -0.4640  0.2886
    2DG     C1'   39   3.233   3.583   3.426  0.4613 -0.0849  0.0766
    2DG     H1'   40   3.237   3.508   3.347  1.3731  0.4621 -0.4019
    2DG      N9   41   3.348   3.673   3.410  0.2191  0.2223  0.0666
    2DG      C8   42   3.348   3.810   3.423 -0.8514  0.2997 -0.6339
    2DG      H8   43   3.267   3.867   3.467 -1.8177 -2.1810  1.0376
    2DG      N7   44   3.457   3.871   3.385 -0.2229 -0.3827  0.0395
    2DG      C5   45   3.537   3.766   3.340  0.0561 -0.1750  0.0495
    2DG      C6   46   3.670   3.769   3.292  0.0451  0.5447  0.0449
    2DG      O6   47   3.731   3.868   3.254 -0.3970  0.5872 -0.5693
    2DG      N1   48   3.725   3.641   3.285 -0.1255  0.4688  0.0941
    2DG      H1   49   3.825   3.631   3.270  0.0700  1.8406  0.3268
    2DG      C2   50   3.649   3.526   3.290  0.2695  0.1852 -0.3860
    2DG      N2   51   3.713   3.412   3.260  0.1285  0.0307 -0.1055
    2DG     H21   52   3.812   3.425   3.242 -0.3309  1.4213 -1.9161
    2DG     H22   53   3.662   3.327   3.279  0.8266 -0.2111  0.7668
    2DG      N3   54   3.524   3.524   3.337  0.3698  0.0391 -0.1220
    2DG      C4   55   3.475   3.647   3.366  0.4728 -0.1846  1.0195
    2DG     C3'   56   3.137   3.579   3.647  0.0252 -0.1570  0.1483
    2DG     H3'   57   3.173   3.671   3.693 -0.7218 -1.3358  3.3139
    2DG     C2'   58   3.246   3.514   3.562  0.2886  0.1778  0.2265
    2DG    H2'1   59   3.344   3.533   3.605  0.3367 -0.0235  0.2061
    2DG    H2'2   60   3.220   3.411   3.538 -0.7911  0.5585 -0.3385
    2DG     O3'   61   3.086   3.497   3.749  0.0582 -0.0848  0.2219
    3DA       P   62   3.171   3.468   3.883  0.2249 -0.2684  0.0761
    3DA     O1P   63   3.077   3.381   3.956  0.1020 -0.1745  0.0310
    3DA     O2P   64   3.211   3.598   3.941  0.5054 -0.2594 -0.1348
    3DA     O5'   65   3.309   3.391   3.851  0.4739  0.1493  0.1354
    3DA     C5'   66   3.317   3.256   3.811 -0.2346  0.1449  0.0033
    3DA    H5'1   67   3.257   3.234   3.723 -0.2969 -1.4554  0.4142
    3DA    H5'2   68   3.285   3.200   3.899  2.8667 -1.9949 -0.1123
    3DA     C4'   69   3.455   3.207   3.771 -0.3006 -0.0575  0.0208
    3DA     H4'   70   3.443   3.102   3.746 -0.2295 -0.0736  0.0542
    3DA     O4'   71   3.494   3.284   3.660 -0.3974 -0.9005 -0.6034
    3DA     C1'   72   3.634   3.300   3.658 -0.4980  0.3306  0.5709
    3DA     H1'   73   3.671   3.251   3.568 -0.6023  1.5062 -0.1258
    3DA      N9   74   3.667   3.443   3.658  0.0866  0.2038 -0.5835
    3DA      C8   75   3.602   3.548   3.718 -0.3730  0.0066 -0.7328
    3DA      H8   76   3.502   3.548   3.756  0.0313  2.4450  0.5108
    3DA      N7   77   3.655   3.666   3.699  0.0223 -0.0904 -0.2429
    3DA      C5   78   3.772   3.635   3.631  0.1410  0.1867 -0.1699
    3DA      C6   79   3.879   3.705   3.573 -0.3309  0.3422 -0.8765
    3DA      N6   80   3.883   3.838   3.557  0.2134  0.3670 -0.5461
    3DA     H61   81   3.806   3.892   3.593  0.8175 -0.0777  1.5930
    3DA     H62   82   3.961   3.874   3.503  2.3562 -1.2769  1.2368
    3DA      N1   83   3.982   3.641   3.516 -0.0181 -0.2719  0.3217
    3DA      C2   84   3.980   3.509   3.507 -0.1759 -0.2310 -0.3395
    3DA      H2   85   4.063   3.463   3.456  0.6742 -0.4168  1.1606
    3DA      N3   86   3.886   3.430   3.556  0.0435 -0.2767  0.0131
    3DA      C4   87   3.783   3.500   3.610  0.0152  0.2525 -0.7014
    3DA     C3'   88   3.567   3.226   3.874 -0.1357 -0.1461 -0.1420
    3DA     H3'   89   3.566   3.320   3.929  1.5569 -0.0755 -0.1873
    3DA     C2'   90   3.685   3.220   3.778  0.0948  0.0424  0.1296
    3DA    H2'1   91   3.779   3.261   3.816  0.1272  1.3154 -1.2124
    3DA    H2'2   92   3.700   3.123   3.732 -1.2808  0.1070 -0.5053
    3DA     O3'   93   3.576   3.111   3.956 -0.1178  0.0529  0.1350
    4DC       P   94   3.620   3.118   4.111  0.2492  0.4372  0.0152
    4DC     O1P   95   3.594   2.987   4.173 -0.0660  0.2208 -0.5581
    4DC     O2P   96   3.558   3.242   4.165 -0.0994  0.4782 -0.4656
    4DC     O5'   97   3.774   3.152   4.080  0.3726 -0.3346 -0.2259
    4DC     C5'   98   3.867   3.048   4.058  0.6310 -0.2299  0.3475
    4DC    H5'1   99   3.837   2.979   3.979 -2.0998  0.1894  0.9165
    4DC    H5'2  100   3.872   2.996   4.154  3.7356 -1.0147 -0.1505
    4DC     C4'  101   4.008   3.100   4.035  0.3760  0.3924  0.1561
    4DC     H4'  102   4.065   3.007   4.029 -0.9458 -0.4890  0.7675
    4DC     O4'  103   4.026   3.178   3.919  0.5339 -0.3559 -0.3348
    4DC     C1'  104   4.121   3.281   3.936  0.2009 -0.1589  0.3784
    4DC     H1'  105   4.199   3.257   3.864 -0.4241  0.1440 -0.4100
    4DC      N1  106   4.059   3.413   3.912  0.2423 -0.1902  0.0938
    4DC      C6  107   3.931   3.448   3.943  0.4677  0.6667  0.0838
    4DC      H6  108   3.860   3.369   3.966 -0.1472  1.5626  1.3527
    4DC      C5  109   3.889   3.575   3.930 -0.6573  0.2546 -0.4705
    4DC      H5  110   3.783   3.597   3.940 -0.5913 -0.1700  1.5325
    4DC      C4  111   3.983   3.668   3.876 -0.0952 -0.3085 -0.4724
    4DC      N4  112   3.948   3.796   3.855  0.6444 -0.0666 -0.2440
    4DC     H41  113   3.857   3.823   3.889 -0.4466 -2.6274 -0.9666
    4DC     H42  114   4.025   3.854   3.823 -0.1887  1.0609 -0.2488
    4DC      N3  115   4.109   3.634   3.849  0.1256  0.0592  0.0675
    4DC      C2  116   4.150   3.505   3.864  0.0423  0.0450  0.1668
    4DC      O2  117   4.268   3.478   3.844  0.1071  0.1651  0.3892
    4DC     C3'  118   4.072   3.173   4.152 -0.4056  0.5297  0.5032
    4DC     H3'  119   3.998   3.232   4.206  1.3885  1.7896  1.6979
    4DC     C2'  120   4.170   3.265   4.079  0.0620 -0.0121  0.4432
    4DC    H2'1  121   4.176   3.355   4.140  0.3349 -0.1958  0.6937
    4DC    H2'2  122   4.267   3.218   4.063  0.2285  0.2446  0.6844
    4DC     O3'  123   4.145   3.094   4.243 -0.4870 -0.0028  0.1109
    5DT       P  124   4.192   3.151   4.386  0.2175 -0.1474 -0.0558
    5DT     O1P  125   4.242   3.034   4.461  0.2256 -0.2783 -0.2680
    5DT     O2P  126   4.082   3.238   4.434  0.0515 -0.0603 -0.5962
    5DT     O5'  127   4.314   3.252   4.357  0.1374  0.0283  0.2054
    5DT     C5'  128   4.435   3.196   4.309  0.1903  0.2500  0.0801
    5DT    H5'1  129   4.402   3.127   4.231 -2.3467  0.2496  1.0473
    5DT    H5'2  130   4.485   3.144   4.391  0.0095  2.2627  1.5389
    5DT     C4'  131   4.537   3.301   4.265  0.1961  0.4026  0.4537
    5DT     H4'  132   4.631   3.255   4.234  0.2895  0.7431  0.2306
    5DT     O4'  133   4.476   3.383   4.168  0.1209  0.2250  0.3504
    5DT     C1'  134   4.540   3.508   4.159  0.3319  0.0720 -0.3439
    5DT     H1'  135   4.597   3.519   4.067  2.0388 -1.4627  0.4672
    5DT      N1  136   4.434   3.611   4.170  0.1128 -0.1723 -0.1551
    5DT      C6  137   4.316   3.586   4.234 -0.1744 -0.0596 -0.6369
    5DT      H6  138   4.313   3.487   4.278  0.6994 -0.5644 -1.6407
    5DT      C5  139   4.211   3.668   4.217 -0.0584  0.2742  0.2576
    5DT      C7  140   4.077   3.629   4.275  0.2020 -0.8239  0.1367
    5DT     H71  141   4.075   3.528   4.316  0.0055 -0.2991  1.4731
    5DT     H72  142   4.050   3.699   4.354  0.7753  2.2773 -2.1950
    5DT     H73  143   4.002   3.630   4.196  1.9840 -0.3251 -1.6406
    5DT      C4  144   4.225   3.793   4.145  0.0301  0.3135  0.3423
    5DT      O4  145   4.134   3.870   4.117 -0.3577 -0.0521  0.5785
    5DT      N3  146   4.353   3.816   4.096 -0.0822  0.2782  0.0285
    5DT      H3  147   4.373   3.907   4.058 -0.8534  0.7352  0.6699
    5DT      C2  148   4.458   3.726   4.097 -0.4857 -0.2034 -0.4075
    5DT      O2  149   4.567   3.763   4.053 -0.1363 -0.7843 -0.0433
    5DT     C3'  150   4.580   3.403   4.370  0.2265  0.0314  0.8098
    5DT     H3'  151   4.490   3.435   4.423  0.2938  0.9362  0.4048
    5DT     C2'  152   4.638   3.510   4.277 -0.2910 -0.2291  0.1845
    5DT    H2'1  153   4.646   3.610   4.319  1.8746 -0.4050  0.2543
    5DT    H2'2  154   4.736   3.474   4.246 -0.0429 -0.1114  0.8314
    5DT     O3'  155   4.687   3.366   4.453  1.0489  0.2595 -0.1287
    6DC       P  156   4.684   3.425   4.603 -0.0790 -0.0631 -0.0185
    6DC     O1P  157   4.791   3.359   4.680 -0.1070 -0.0924 -0.0046
    6DC     O2P  158   4.544   3.415   4.650 -0.1362 -0.1418 -0.2030
    6DC     O5'  159   4.728   3.579   4.584  0.0309 -0.0863  0.0468
    6DC     C5'  160   4.858   3.620   4.550  0.0112 -0.2921 -0.2800
    6DC    H5'1  161   4.892   3.564   4.462 -0.3489  0.3403 -0.8325
    6DC    H5'2  162   4.926   3.594   4.631 -0.5519 -0.9408 -0.0007
    6DC     C4'  163   4.881   3.769   4.530  0.2099 -0.2383  0.3349
    6DC     H4'  164   4.987   3.791   4.519 -0.6126  3.4721 -2.3923
    6DC     O4'  165   4.821   3.810   4.409 -0.6371  0.0189  0.8360
    6DC     C1'  166   4.775   3.943   4.425  0.2731  0.4603 -0.1497
    6DC     H1'  167   4.829   4.010   4.358  1.7162 -1.2804 -0.8460
    6DC      N1  168   4.629   3.950   4.406  0.2476  0.0680 -0.1196
    6DC      C6  169   4.550   3.847   4.446  0.4293 -0.1233 -0.2526
    6DC      H6  170   4.593   3.765   4.501 -1.3845 -0.2044  1.1546
    6DC      C5  171   4.415   3.859   4.442  0.3836 -0.6812 -0.4828
    6DC      H5  172   4.344   3.789   4.483  0.3279  1.2165  3.0009
    6DC      C4  173   4.365   3.986   4.400  0.0172 -0.3958  0.7932
    6DC      N4  174   4.235   4.017   4.408 -0.0027 -0.0826 -0.5391
    6DC     H41  175   4.174   3.945   4.445  0.1039 -0.2447 -0.6744
    6DC     H42  176   4.203   4.099   4.360  1.7249  0.9421 -0.0013
    6DC      N3  177   4.442   4.092   4.369  0.3149 -0.8255  0.0658
    6DC      C2  178   4.576   4.073   4.371  0.4669  0.2158  0.0618
    6DC      O2  179   4.649   4.166   4.335  0.4805  0.2343  0.1389
    6DC     C3'  180   4.836   3.858   4.646  0.2430  0.0123  0.1564
    6DC     H3'  181   4.747   3.818   4.694 -1.9122  1.3153 -2.4625
    6DC     C2'  182   4.809   3.986   4.567 -0.3088 -0.0976  0.1625
    6DC    H2'1  183   4.734   4.041   4.625 -0.7111  1.2486 -1.5369
    6DC    H2'2  184   4.891   4.058   4.563 -0.1600 -0.3103 -2.5480
    6DC     O3'  185   4.930   3.893   4.745  0.3979  0.1055 -0.0224
    7DT       P  186   4.893   3.925   4.898 -0.3672 -0.0123 -0.1752
    7DT     O1P  187   5.016   3.918   4.981 -0.5710  0.1472  0.1423
    7DT     O2P  188   4.770   3.854   4.940 -0.0338 -0.2493  0.4141
    7DT     O5'  189   4.862   4.082   4.883 -0.2156  0.0812  0.4362
    7DT     C5'  190   4.959   4.176   4.840  0.1015 -0.1913  0.5549
    7DT    H5'1  191   5.002   4.138   4.747 -1.0760 -0.8892  0.2723
    7DT    H5'2  192   5.041   4.181   4.912  2.6520 -1.1746 -2.0952
    7DT     C4'  193   4.908   4.318   4.821  0.6863 -0.0787 -0.1973
    7DT     H4'  194   4.992   4.382   4.792 -1.1615  1.9929 -1.2851
    7DT     O4'  195   4.816   4.321   4.715  0.4400  0.2009  0.0225
    7DT     C1'  196   4.705   4.406   4.737  0.1943 -0.0592 -0.1941
    7DT     H1'  197   4.709   4.490   4.667 -0.4508  1.2581  1.2841
    7DT      N1  198   4.576   4.335   4.727  0.0483  0.1872 -0.0662
    7DT      C6  199   4.565   4.207   4.772  0.4864  0.1627 -0.0200
    7DT      H6  200   4.650   4.155   4.812 -0.0645  0.9674  2.3411
    7DT      C5  201   4.446   4.143   4.768  0.4862  0.1864 -0.4356
    7DT      C7  202   4.447   3.996   4.802  0.3677  0.2017 -0.3652
    7DT     H71  203   4.425   3.945   4.708 -0.7789  0.4195 -0.2376
    7DT     H72  204   4.547   3.957   4.816  1.1231  1.8368 -0.9990
    7DT     H73  205   4.374   3.968   4.878  0.9482 -1.3881 -0.3634
    7DT      C4  206   4.332   4.204   4.702 -0.0457 -0.7523 -0.3933
    7DT      O4  207   4.221   4.154   4.686 -0.0862 -0.7026 -0.2717
    7DT      N3  208   4.347   4.336   4.665  0.0013 -0.5631  0.2843
    7DT      H3  209   4.266   4.389   4.634  1.3260  0.2149 -2.1162
    7DT      C2  210   4.469   4.403   4.672 -0.1518 -0.2277 -0.1892
    7DT      O2  211   4.480   4.516   4.625 -0.2971 -0.0251  0.2584
    7DT     C3'  212   4.835   4.382   4.939  0.3556 -0.4122 -0.2198
    7DT     H3'  213   4.785   4.304   4.996 -1.6769 -0.1979 -1.6041
    7DT     C2'  214   4.726   4.467   4.876  0.4508 -0.2386 -0.1525
    7DT    H2'1  215   4.635   4.457   4.935 -0.8068 -0.6691 -2.0545
    7DT    H2'2  216   4.760   4.570   4.872  0.5197 -0.1915  1.2865
    7DT     O3'  217   4.916   4.473   5.010 -0.2796 -0.0608  0.0647
    8DA       P  218   4.892   4.484   5.169 -0.1801 -0.1493  0.0862
    8DA     O1P  219   4.999   4.566   5.229  0.0373 -0.0030 -0.4920
    8DA     O2P  220   4.862   4.351   5.228  0.5341 -0.3571 -0.0076
    8DA     O5'  221   4.759   4.574   5.169 -0.2708 -0.2802  0.4274
    8DA     C5'  222   4.764   4.709   5.128 -0.3073 -0.4623 -0.1975
    8DA    H5'1  223   4.817   4.718   5.033 -3.0115  1.0083 -1.6633
    8DA    H5'2  224   4.827   4.760   5.201  0.6108 -1.6612 -0.1175
    8DA     C4'  225   4.633   4.781   5.101  0.3102  0.6527 -0.3003
    8DA     H4'  226   4.649   4.884   5.067 -0.2597  0.5270 -0.9913
    8DA     O4'  227   4.552   4.720   5.003 -0.2094 -0.2166  0.6613
    8DA     C1'  228   4.414   4.730   5.032 -0.3165 -0.1346  0.1228
    8DA     H1'  229   4.374   4.812   4.972  0.4835  0.2728  0.1299
    8DA      N9  230   4.349   4.601   5.002 -0.0570 -0.2180 -0.0789
    8DA      C8  231   4.389   4.473   5.032 -0.3827 -0.1968  0.4621
    8DA      H8  232   4.487   4.449   5.071 -0.2682 -2.7561 -1.1347
    8DA      N7  233   4.304   4.380   5.002 -0.2301 -0.2530  0.1970
    8DA      C5  234   4.195   4.456   4.961 -0.4302 -0.2933  0.6537
    8DA      C6  235   4.064   4.425   4.921 -0.4870  0.4417  0.2559
    8DA      N6  236   4.021   4.298   4.917  0.9376 -0.0439  0.0359
    8DA     H61  237   4.085   4.223   4.940  0.7331  0.5036  2.7722
    8DA     H62  238   3.932   4.283   4.873  0.2726 -0.2525  1.4006
    8DA      N1  239   3.970   4.518   4.899 -0.8261  0.0044 -0.1802
    8DA      C2  240   4.014   4.643   4.893  0.6999 -0.5230 -0.4203
    8DA      H2  241   3.932   4.713   4.883  1.9905  0.9918 -0.8292
    8DA      N3  242   4.130   4.690   4.935  0.4787  0.0397 -0.4309
    8DA      C4  243   4.218   4.591   4.964  0.0706 -0.3405 -0.4951
    8DA     C3'  244   4.547   4.787   5.227  0.1087 -0.0814 -0.3982
    8DA     H3'  245   4.566   4.697   5.285 -0.2147 -0.3412 -0.6891
    8DA     C2'  246   4.403   4.770   5.179 -0.0951  0.5940 -0.0506
    8DA    H2'1  247   4.359   4.686   5.233  1.5562 -0.5408 -0.3746
    8DA    H2'2  248   4.338   4.853   5.205  0.2949  1.8007 -2.5741
    8DA     O3'  249   4.571   4.906   5.298 -0.5792 -0.2944  0.2035
    9DC       P  250   4.522   4.928   5.450 -0.0410 -0.0076  0.3394
    9DC     O1P  251   4.581   5.057   5.491 -0.2049  0.3054 -0.3989
    9DC     O2P  252   4.557   4.805   5.526 -0.5053  0.0569  0.6644
    9DC     O5'  253   4.362   4.939   5.448 -0.0493 -0.1095  0.4124
    9DC     C5'  254   4.297   5.064   5.446  0.2822  0.0669  0.5361
    9DC    H5'1  255   4.330   5.129   5.365 -1.1665 -0.0980 -0.2308
    9DC    H5'2  256   4.310   5.128   5.533 -1.5144  0.4103  0.5994
    9DC     C4'  257   4.148   5.042   5.417  0.4687 -0.3787 -0.1162
    9DC     H4'  258   4.094   5.135   5.398  0.4715 -0.7428 -2.1155
    9DC     O4'  259   4.123   4.955   5.309  0.3619 -0.9288  0.3470
    9DC     C1'  260   3.998   4.892   5.321  0.1112 -0.3654  0.7377
    9DC     H1'  261   3.927   4.946   5.259  0.4075  1.4281  1.8847
    9DC      N1  262   4.005   4.749   5.285 -0.0621 -0.2506  0.2394
    9DC      C6  263   4.108   4.676   5.336  0.2334  0.1284  0.1931
    9DC      H6  264   4.191   4.727   5.383  0.2752  1.2446 -1.0493
    9DC      C5  265   4.119   4.543   5.313  0.1214  0.1755 -0.1304
    9DC      H5  266   4.205   4.487   5.344  0.4023 -0.2260 -1.5639
    9DC      C4  267   4.006   4.484   5.248  0.1278  0.1513 -0.1195
    9DC      N4  268   4.009   4.351   5.226 -0.2035  0.1124  0.0632
    9DC     H41  269   4.079   4.287   5.260 -1.1174 -1.3710 -0.7538
    9DC     H42  270   3.944   4.310   5.161  1.2179 -1.1652 -0.6153
    9DC      N3  271   3.909   4.559   5.194  0.2563  0.6697  0.3672
    9DC      C2  272   3.903   4.694   5.210 -0.4648  0.6739  0.0921
    9DC      O2  273   3.812   4.759   5.159 -0.3723  0.6665 -0.0845
    9DC     C3'  274   4.074   4.982   5.536  0.2062  0.1746  0.0013
    9DC     H3'  275   4.140   4.910   5.584  1.0452  1.9504  1.6828
    9DC     C2'  276   3.957   4.912   5.467 -0.2533  0.4090  0.5312
    9DC    H2'1  277   3.944   4.813   5.510 -2.1222  0.1883 -0.4082
    9DC    H2'2  278   3.864   4.969   5.468 -0.5160 -0.0066  2.3678
    9DC     O3'  279   4.017   5.090   5.607  0.0285  0.0135  0.1046
   10DG       P  280   3.970   5.060   5.758 -0.1978 -0.0849  0.0161
   10DG     O1P  281   3.970   5.188   5.832  0.2960 -0.3155  0.4237
   10DG     O2P  282   4.066   4.959   5.809 -0.0923 -0.4506 -0.8900
   10DG     O5'  283   3.822   4.998   5.766 -0.1386 -0.1670  0.5619
   10DG     C5'  284   3.709   5.068   5.717  0.2055  0.0223  0.0280
   10DG    H5'1  285   3.728   5.112   5.619  0.1075  0.2373  0.1060
   10DG    H5'2  286   3.679   5.143   5.790 -1.2850  0.8405 -1.3633
   10DG     C4'  287   3.592   4.974   5.688  0.1951  0.0616 -0.0583
   10DG     H4'  288   3.499   5.029   5.673 -0.4817 -0.9686  0.2665
   10DG     O4'  289   3.604   4.895   5.572  0.0823  0.3477 -0.2660
   10DG     C1'  290   3.528   4.777   5.584 -0.2019  0.5414 -0.1600
   10DG     H1'  291   3.444   4.775   5.514  0.0891  1.7028 -0.5663
   10DG      N9  292   3.610   4.656   5.568 -0.3174  0.3758  0.4541
   10DG      C8  293   3.738   4.643   5.615 -0.0968 -0.0987 -0.2490
   10DG      H8  294   3.800   4.719   5.660  0.0456  0.1336 -0.8283
   10DG      N7  295   3.787   4.532   5.570 -0.0746  0.0686 -0.6412
   10DG      C5  296   3.683   4.455   5.519 -0.2343  0.1278 -0.4058
   10DG      C6  297   3.669   4.316   5.492  0.0892  0.0391 -0.1361
   10DG      O6  298   3.754   4.228   5.486  0.2139  0.1953 -0.7268
   10DG      N1  299   3.536   4.281   5.472  0.0246  0.1772  0.0492
   10DG      H1  300   3.510   4.187   5.444 -2.0465  0.9589 -0.8495
   10DG      C2  301   3.429   4.368   5.478  0.1928  0.3573  0.5283
   10DG      N2  302   3.306   4.315   5.473  0.1733  0.4391  0.1063
   10DG     H21  303   3.287   4.223   5.435  2.0009  0.0378  0.1010
   10DG     H22  304   3.232   4.383   5.485 -1.0172 -0.9949  1.4992
   10DG      N3  305   3.439   4.494   5.521 -0.0619  0.5622 -0.0023
   10DG      C4  306   3.569   4.529   5.534 -0.0287  0.2860  0.4389
   10DG     C3'  307   3.565   4.887   5.810  0.5428 -0.0731 -0.0779
   10DG     H3'  308   3.657   4.839   5.846  0.4473 -0.4037 -0.2723
   10DG     C2'  309   3.484   4.786   5.730  0.3464 -0.0104  0.0417
   10DG    H2'1  310   3.485   4.690   5.783  2.2045 -0.2156 -0.3068
   10DG    H2'2  311   3.381   4.821   5.733  1.1163  2.3420  1.5783
   10DG     O3'  312   3.490   4.959   5.906  0.0045 -0.5764 -0.1147
   11DG       P  313   3.455   4.890   6.047  0.0184  0.1780  0.2600
   11DG     O1P  314   3.366   4.976   6.128  0.2643  0.1815  0.5285
   11DG     O2P  315   3.585   4.852   6.106 -0.0412 -0.3847  0.0332
   11DG     O5'  316   3.372   4.754   6.021 -0.0665  0.2297  0.2639
   11DG     C5'  317   3.233   4.760   5.996  0.0413 -0.1812 -0.4575
   11DG    H5'1  318   3.205   4.834   5.921 -2.4895  1.0323  1.5007
   11DG    H5'2  319   3.179   4.790   6.086  0.3594 -2.4215  0.5471
   11DG     C4'  320   3.173   4.626   5.954 -0.0233 -0.1246 -0.5464
   11DG     H4'  321   3.072   4.646   5.917  0.3122  0.7358 -1.0333
   11DG     O4'  322   3.250   4.572   5.850  0.7549  0.3216 -0.2121
   11DG     C1'  323   3.243   4.432   5.853 -0.3124  0.3656 -0.2881
   11DG     H1'  324   3.193   4.396   5.763  1.0661 -0.9161 -0.6051
   11DG      N9  325   3.377   4.370   5.852 -0.5280 -0.1169  0.0842
   11DG      C8  326   3.499   4.422   5.890 -0.2005  0.1616 -1.3154
   11DG      H8  327   3.514   4.520   5.932 -0.0906  0.0195 -1.0202
   11DG      N7  328   3.603   4.347   5.868  0.0202  0.1187 -0.1563
   11DG      C5  329   3.545   4.238   5.804  0.3500 -0.0628 -0.1474
   11DG      C6  330   3.609   4.117   5.765  0.0536 -0.3367  0.2045
   11DG      O6  331   3.728   4.087   5.761  0.0574 -0.3215  0.1989
   11DG      N1  332   3.517   4.026   5.715  0.3428 -0.5023 -0.0266
   11DG      H1  333   3.551   3.933   5.695  2.3910 -0.2023  1.6894
   11DG      C2  334   3.380   4.039   5.726  0.4608 -0.2252  1.2829
   11DG      N2  335   3.312   3.923   5.733  0.0949 -0.1168 -0.0491
   11DG     H21  336   3.362   3.837   5.715  0.4897  0.0581  0.1732
   11DG     H22  337   3.213   3.927   5.748  0.3112 -0.6977  1.8106
   11DG      N3  338   3.322   4.157   5.752  0.3788  0.1803 -0.5857
   11DG      C4  339   3.410   4.252   5.790  0.2642 -0.1477  0.5403
   11DG     C3'  340   3.175   4.518   6.062  0.3991  0.5254  0.1100
   11DG     H3'  341   3.268   4.519   6.118  0.8575 -1.3949 -0.5456
   11DG     C2'  342   3.166   4.391   5.978 -0.2930  0.7401 -0.1526
   11DG    H2'1  343   3.212   4.307   6.032 -2.3528 -0.8140 -0.6964
   11DG    H2'2  344   3.071   4.353   5.941  0.9846 -0.3328 -2.5839
   11DG     O3'  345   3.072   4.515   6.158  0.1750 -0.9522 -0.1619
   12DA       P  346   3.097   4.455   6.305  0.2702  0.1232  0.2652
   12DA     O1P  347   2.978   4.487   6.387  0.0176 -0.0353 -0.0382
   12DA     O2P  348   3.230   4.492   6.359  0.3301  0.6187 -0.2198
   12DA     O5'  349   3.099   4.294   6.294 -0.1849  0.1647 -0.5007
   12DA     C5'  350   2.987   4.217   6.260 -0.0424  0.0357 -0.6814
   12DA    H5'1  351   2.940   4.256   6.169 -0.6182  1.6125  0.2455
   12DA    H5'2  352   2.902   4.223   6.329 -0.7218 -1.8828 -1.2918
   12DA     C4'  353   3.025   4.072   6.233 -0.0262  0.0013 -0.4774
   12DA     H4'  354   2.936   4.014   6.211 -1.0045  1.6025 -0.8926
   12DA     O4'  355   3.098   4.074   6.112 -0.1603 -0.0499 -0.5589
   12DA     C1'  356   3.182   3.961   6.112 -0.4218 -0.2465 -0.3991
   12DA     H1'  357   3.153   3.905   6.024  0.8911  1.1951 -1.8200
   12DA      N9  358   3.325   3.996   6.099 -0.3394 -0.3249  0.2567
   12DA      C8  359   3.391   4.108   6.141 -0.2271  0.0329 -0.8581
   12DA      H8  360   3.352   4.191   6.198  1.8062  0.3847  0.1157
   12DA      N7  361   3.520   4.101   6.123 -0.0361 -0.2102  0.4875
   12DA      C5  362   3.536   3.973   6.070  0.0295 -0.0171  0.0341
   12DA      C6  363   3.646   3.898   6.025 -0.5141 -0.6108 -0.3261
   12DA      N6  364   3.765   3.960   6.022 -0.5452 -0.5393 -0.1065
   12DA     H61  365   3.758   4.059   6.038 -1.3217 -0.0751 -2.8433
   12DA     H62  366   3.852   3.918   5.990  0.9883  3.0894 -1.2623
   12DA      N1  367   3.639   3.768   5.996  0.2744 -0.7931  0.2622
   12DA      C2  368   3.517   3.718   5.995 -0.1282  0.1622  0.4319
   12DA      H2  369   3.522   3.615   5.962 -2.5265 -0.1240  0.7702
   12DA      N3  370   3.400   3.777   6.014 -0.2453 -0.0199  0.2860
   12DA      C4  371   3.419   3.903   6.059 -0.0874  0.2621 -0.5375
   12DA     C3'  372   3.102   3.992   6.338  0.3854  0.6100 -0.3096
   12DA     H3'  373   3.181   4.054   6.379  0.4874 -0.7628  1.6771
   12DA     C2'  374   3.150   3.885   6.240 -0.4467  0.1182 -0.1863
   12DA    H2'1  375   3.243   3.838   6.270 -0.0880  0.3877 -0.8594
   12DA    H2'2  376   3.081   3.802   6.221  2.2172 -2.1186 -0.6131
   12DA     O3'  377   3.014   3.942   6.436  0.7703 -0.1574 -0.3484
   13DA       P  378   3.068   3.893   6.580 -0.0518  0.3438  0.1378
   13DA     O1P  379   2.957   3.864   6.673 -0.3163 -0.6029 -0.4655
   13DA     O2P  380   3.168   3.996   6.616 -0.4120  0.7270  0.0484
   13DA     O5'  381   3.142   3.753   6.551 -0.2225  0.2302  0.2514
   13DA     C5'  382   3.071   3.638   6.512  0.2676  0.1099 -0.2908
   13DA    H5'1  383   3.014   3.679   6.428  1.0863  0.9125 -0.4707
   13DA    H5'2  384   3.007   3.599   6.591 -0.6812  3.0714  0.5408
   13DA     C4'  385   3.170   3.530   6.470  0.7247  0.1730  0.6162
   13DA     H4'  386   3.110   3.444   6.439 -0.3597  1.4345 -0.9340
   13DA     O4'  387   3.245   3.572   6.359  0.0198 -0.0312  0.0527
   13DA     C1'  388   3.373   3.513   6.364 -0.0492 -0.2407 -0.6061
   13DA     H1'  389   3.396   3.451   6.277 -0.2801 -1.6822  0.3153
   13DA      N9  390   3.478   3.616   6.366 -0.0696 -0.2284 -0.0014
   13DA      C8  391   3.468   3.748   6.403 -0.2363 -0.2558  0.0501
   13DA      H8  392   3.375   3.777   6.450 -0.3715 -0.1971 -0.2492
   13DA      N7  393   3.579   3.815   6.387 -0.3200 -0.2503 -0.5598
   13DA      C5  394   3.669   3.721   6.339 -0.0287 -0.1356 -0.2441
   13DA      C6  395   3.805   3.724   6.303  0.0748  0.1419  0.1615
   13DA      N6  396   3.881   3.833   6.288  0.0602  0.1404  0.0761
   13DA     H61  397   3.854   3.917   6.338 -0.5597  1.2834 -2.0671
   13DA     H62  398   3.971   3.820   6.245  0.3205 -0.9940  0.9157
   13DA      N1  399   3.860   3.610   6.257  0.0012 -0.1170  0.7086
   13DA      C2  400   3.788   3.500   6.252  0.1142 -0.1865  0.6146
   13DA      H2  401   3.838   3.414   6.209 -1.8208 -0.6439 -0.8414
   13DA      N3  402   3.663   3.480   6.290 -0.0895 -0.1400 -0.0212
   13DA      C4  403   3.611   3.597   6.334 -0.0570 -0.1313 -0.0062
   13DA     C3'  404   3.272   3.497   6.579  1.0786 -0.3134  0.1443
   13DA     H3'  405   3.300   3.591   6.627 -1.1248  0.1127  0.6881
   13DA     C2'  406   3.384   3.436   6.495  1.0026  0.2663 -0.3883
   13DA    H2'1  407   3.481   3.455   6.541  1.6603 -0.3463 -1.5013
   13DA    H2'2  408   3.364   3.329   6.486  0.1221 -0.0487  3.4837
   13DA     O3'  409   3.222   3.395   6.662 -0.1889 -0.1256 -0.3626
   14DG       P  410   3.283   3.375   6.810  0.4211  0.0954 -0.5801
   14DG     O1P  411   3.189   3.283   6.878  0.7618 -0.0061 -0.2466
   14DG     O2P  412   3.307   3.507   6.874 -0.3747 -0.3196  0.6282
   14DG     O5'  413   3.429   3.310   6.796  0.2922 -0.4096  0.3574
   14DG     C5'  414   3.451   3.174   6.765 -0.3199 -0.3617 -0.3055
   14DG    H5'1  415   3.391   3.140   6.681 -1.4982  1.2683 -0.1706
   14DG    H5'2  416   3.429   3.113   6.853 -0.0812  0.9488  0.6899
   14DG     C4'  417   3.597   3.146   6.730 -0.3160 -0.3005 -0.3396
   14DG     H4'  418   3.607   3.038   6.720  1.5388 -0.3115  1.0881
   14DG     O4'  419   3.646   3.221   6.621 -0.1808 -0.5270 -0.4355
   14DG     C1'  420   3.784   3.247   6.635 -0.2473  0.0042 -0.7508
   14DG     H1'  421   3.841   3.190   6.561 -0.2411 -0.8285 -0.1127
   14DG      N9  422   3.809   3.392   6.625  0.3836 -0.0713 -0.3550
   14DG      C8  423   3.723   3.497   6.650 -0.0474 -0.3770 -0.5427
   14DG      H8  424   3.620   3.482   6.678  0.1032  1.0453  0.8986
   14DG      N7  425   3.781   3.611   6.627  0.1387 -0.4516 -0.4464
   14DG      C5  426   3.911   3.580   6.588  0.0799 -0.1332 -0.9076
   14DG      C6  427   4.024   3.662   6.562 -0.1174  0.5925  0.4271
   14DG      O6  428   4.019   3.783   6.546 -0.2464  0.5357  0.0215
   14DG      N1  429   4.141   3.591   6.537 -0.3944  0.2363  0.1302
   14DG      H1  430   4.218   3.640   6.494  1.1851 -2.7858 -0.8039
   14DG      C2  431   4.147   3.453   6.550 -0.3620  0.1547 -0.6910
   14DG      N2  432   4.268   3.398   6.560 -0.4792  0.0504  0.2835
   14DG     H21  433   4.341   3.468   6.563 -0.7684  0.4190 -0.7873
   14DG     H22  434   4.282   3.298   6.552  0.1241  0.2489 -1.8650
   14DG      N3  435   4.044   3.371   6.573  0.2542 -0.4058  0.1505
   14DG      C4  436   3.932   3.445   6.593  0.3822 -0.0707 -0.3590
   14DG     C3'  437   3.692   3.180   6.845 -0.3239 -0.0479 -0.4064
   14DG     H3'  438   3.664   3.275   6.889 -1.9232 -0.7915  0.2540
   14DG     C2'  439   3.825   3.190   6.770 -0.4376  0.3027 -0.5646
   14DG    H2'1  440   3.907   3.245   6.815  1.1875 -2.1575 -0.3020
   14DG    H2'2  441   3.860   3.088   6.754 -2.5963 -0.6364  0.3001
   14DG     O3'  442   3.699   3.074   6.938 -0.0584  0.3201 -0.0064
   15DG       P  443   3.780   3.087   7.076 -0.3639 -0.2584  0.2320
   15DG     O1P  444   3.775   2.953   7.138 -0.3700 -0.2306  0.2915
   15DG     O2P  445   3.715   3.191   7.159 -0.2605 -0.4542  0.5620
   15DG     O5'  446   3.934   3.122   7.045 -0.3924  0.0662  0.4494
   15DG     C5'  447   4.032   3.024   7.019  0.2270  0.7590  0.1253
   15DG    H5'1  448   3.994   2.975   6.929 -0.4648  1.5780 -0.0369
   15DG    H5'2  449   4.030   2.952   7.101 -1.5249 -0.2746 -0.7574
   15DG     C4'  450   4.173   3.081   7.002  0.4557  0.0672 -0.3213
   15DG     H4'  451   4.247   3.003   6.982  0.7745 -0.0240  1.0871
   15DG     O4'  452   4.180   3.171   6.894 -0.3270  0.6460  0.1035
   15DG     C1'  453   4.291   3.258   6.910  0.1490  0.0174  0.2516
   15DG     H1'  454   4.350   3.240   6.820 -1.2242  0.5160 -0.7995
   15DG      N9  455   4.233   3.393   6.900 -0.0355 -0.1011 -0.3310
   15DG      C8  456   4.108   3.438   6.935  0.2343  0.6328 -0.2832
   15DG      H8  457   4.034   3.376   6.983  0.9725 -1.8573 -2.0932
   15DG      N7  458   4.086   3.560   6.896 -0.5748  0.5703 -0.0227
   15DG      C5  459   4.210   3.608   6.856 -0.1610 -0.2459  0.2632
   15DG      C6  460   4.255   3.734   6.810 -0.2572 -0.2864  0.0627
   15DG      O6  461   4.193   3.840   6.798  0.1916  0.0125  0.3813
   15DG      N1  462   4.392   3.737   6.786 -0.3615 -0.5179 -0.5877
   15DG      H1  463   4.434   3.826   6.763 -2.9746  1.1492  0.6088
   15DG      C2  464   4.478   3.632   6.812 -0.1146  0.0015  0.8097
   15DG      N2  465   4.608   3.653   6.789 -0.1830  0.2920  0.6829
   15DG     H21  466   4.633   3.745   6.757  0.9436  0.0038  0.6928
   15DG     H22  467   4.678   3.580   6.797 -0.1049  0.3703  0.7229
   15DG      N3  468   4.437   3.511   6.852  0.1110 -0.1884  0.4697
   15DG      C4  469   4.303   3.508   6.870  0.0996  0.0160  0.4139
   15DG     C3'  470   4.246   3.147   7.118 -0.2353 -0.2186  0.2820
   15DG     H3'  471   4.180   3.217   7.170 -2.5050 -1.9508 -0.0986
   15DG     C2'  472   4.353   3.227   7.045 -0.0974 -0.4156  0.2693
   15DG    H2'1  473   4.383   3.315   7.103  1.5796 -0.4714 -0.4444
   15DG    H2'2  474   4.437   3.158   7.030 -0.1837 -0.7785  1.3384
   15DG     O3'  475   4.313   3.064   7.210  0.4530  0.2105  0.1734
   16DG       P  476   4.363   3.117   7.353  0.6397 -0.0179  0.1937
   16DG     O1P  477   4.430   3.000   7.415  0.2706 -0.4790 -0.2700
   16DG     O2P  478   4.250   3.178   7.427  0.4130  0.0228 -0.1844
   16DG     O5'  479   4.471   3.234   7.334 -0.0880  0.5682 -0.3547
   16DG     C5'  480   4.597   3.196   7.284  0.1006 -0.1209  0.6161
   16DG    H5'1  481   4.590   3.136   7.193 -0.0793 -0.9183  1.1530
   16DG    H5'2  482   4.649   3.133   7.356 -0.8354 -0.1276  1.2895
   16DG     C4'  483   4.696   3.309   7.255 -0.4726  0.3612  0.5179
   16DG     H4'  484   4.794   3.265   7.235  0.9050  2.2589  2.6531
   16DG     O4'  485   4.652   3.388   7.146  0.2371  0.4592  0.2955
   16DG     C1'  486   4.676   3.525   7.168 -0.1947  0.6343 -0.2966
   16DG     H1'  487   4.740   3.562   7.088  0.5172 -0.4553 -0.2611
   16DG      N9  488   4.557   3.611   7.169 -0.3250  0.4532 -0.0467
   16DG      C8  489   4.425   3.589   7.202 -0.2075 -0.3720 -0.1025
   16DG      H8  490   4.388   3.493   7.233 -1.4105 -0.0140 -0.3882
   16DG      N7  491   4.349   3.691   7.176  0.1427 -0.1498 -0.2708
   16DG      C5  492   4.435   3.787   7.125  0.0999 -0.0910 -0.2336
   16DG      C6  493   4.411   3.917   7.072 -0.0358 -0.1843 -0.4001
   16DG      O6  494   4.303   3.975   7.065  0.2480  0.4576  0.3371
   16DG      N1  495   4.527   3.980   7.030 -0.0061 -0.4596 -0.7313
   16DG      H1  496   4.516   4.075   6.999 -0.7217 -0.2778  0.0462
   16DG      C2  497   4.654   3.930   7.053  0.0954  0.2857  0.3995
   16DG      N2  498   4.754   4.017   7.031  0.0538  0.2084 -0.1236
   16DG     H21  499   4.722   4.112   7.037  0.1982  0.2119  0.7742
   16DG     H22  500   4.842   3.981   7.068  1.7944  3.7983 -0.4025
   16DG      N3  501   4.680   3.807   7.100  0.4180  0.0175 -0.4541
   16DG      C4  502   4.565   3.742   7.130  0.2261  0.2102 -0.7670
   16DG     C3'  503   4.727   3.402   7.372  0.3725  0.3584  0.3079
   16DG     H3'  504   4.633   3.410   7.427 -0.0806 -0.1084 -0.3802
   16DG     C2'  505   4.760   3.530   7.296  0.3060 -0.1460 -0.5868
   16DG    H2'1  506   4.749   3.619   7.358 -0.6793 -0.1933 -0.6826
   16DG    H2'2  507   4.865   3.527   7.266  0.8171  3.3887  0.3995
   16DG     O3'  508   4.839   3.360   7.446  0.5373  0.4603  0.1162
   17DC       P  509   4.885   3.418   7.589  0.0458  0.2017  0.3824
   17DC     O1P  510   5.008   3.347   7.630 -0.0902  0.0775  0.5724
   17DC     O2P  511   4.763   3.413   7.673 -0.0781  0.0595  0.1958
   17DC     O5'  512   4.918   3.572   7.556 -0.4008  0.2445  0.1263
   17DC     C5'  513   5.042   3.634   7.528 -0.0755 -0.5245 -0.1550
   17DC    H5'1  514   5.090   3.579   7.448  0.3513 -0.0660 -0.2170
   17DC    H5'2  515   5.110   3.626   7.613  0.6329  1.9828 -0.4086
   17DC     C4'  516   5.022   3.783   7.500 -0.2790 -0.4389  0.4367
   17DC     H4'  517   5.118   3.809   7.455 -0.5368 -1.1844 -0.5653
   17DC     O4'  518   4.922   3.810   7.405  0.1485  0.2077  0.1651
   17DC     C1'  519   4.890   3.947   7.410  0.0811  0.1953  0.0791
   17DC     H1'  520   4.927   3.994   7.319 -0.0916 -0.3266 -0.2691
   17DC      N1  521   4.743   3.963   7.411 -0.0119 -0.5709 -0.1267
   17DC      C6  522   4.666   3.868   7.471  0.1844 -0.1480  0.8226
   17DC      H6  523   4.704   3.783   7.526 -3.0912 -0.9729  2.0668
   17DC      C5  524   4.533   3.874   7.448  0.2804 -0.1294  0.2645
   17DC      H5  525   4.472   3.793   7.484 -0.7332 -0.3847 -1.8494
   17DC      C4  526   4.482   3.988   7.378  0.2069 -0.1415  0.2979
   17DC      N4  527   4.352   4.011   7.355  0.3259 -0.0313 -0.3028
   17DC     H41  528   4.286   3.940   7.382  2.3894 -1.7974  0.4134
   17DC     H42  529   4.331   4.104   7.322  0.6458  0.0136 -0.3817
   17DC      N3  530   4.555   4.095   7.344  0.3861 -0.3330  0.0763
   17DC      C2  531   4.688   4.083   7.369  0.3548 -0.2597  0.2742
   17DC      O2  532   4.763   4.177   7.343 -0.2755  0.2688  0.3498
   17DC     C3'  533   4.991   3.883   7.611 -0.5187 -0.0674  0.0362
   17DC     H3'  534   4.907   3.848   7.670 -1.0307  2.3442  0.8632
   17DC     C2'  535   4.950   4.009   7.536  0.4296  0.1798 -0.0798
   17DC    H2'1  536   4.873   4.056   7.597 -1.1201  0.4300 -2.0974
   17DC    H2'2  537   5.035   4.076   7.520  0.4395  0.5425  1.3489
   17DC     O3'  538   5.100   3.915   7.695 -0.1098  0.1706 -0.5740
   18DA       P  539   5.080   3.951   7.851  0.1874 -0.2285 -0.4435
   18DA     O1P  540   5.207   3.969   7.926 -0.2743  0.8522  0.1068
   18DA     O2P  541   4.985   3.853   7.909  0.1285 -0.1591 -0.4228
   18DA     O5'  542   5.012   4.097   7.843 -0.4973 -0.5323 -0.2767
   18DA     C5'  543   5.091   4.212   7.826 -0.5255 -0.3642  0.6844
   18DA    H5'1  544   5.161   4.202   7.743 -2.2123 -0.8918 -0.7434
   18DA    H5'2  545   5.156   4.230   7.911  0.2640  2.8381 -0.4394
   18DA     C4'  546   5.012   4.341   7.803  0.6530  0.2637  0.0087
   18DA     H4'  547   5.083   4.422   7.787  1.5316  0.0483  2.4093
   18DA     O4'  548   4.926   4.333   7.691  0.2583  0.0108  0.3235
   18DA     C1'  549   4.814   4.415   7.710  0.1525  0.0071 -0.2630
   18DA     H1'  550   4.817   4.501   7.643  0.9393 -0.5965 -1.0265
   18DA      N9  551   4.688   4.340   7.695  0.2835 -0.0842 -0.9246
   18DA      C8  552   4.658   4.210   7.728  0.0877  0.1371 -0.2125
   18DA      H8  553   4.734   4.150   7.775  0.6324  1.3581  0.5112
   18DA      N7  554   4.539   4.169   7.694 -0.0156  0.1577  0.1241
   18DA      C5  555   4.480   4.287   7.648 -0.2202  0.0501  0.1118
   18DA      C6  556   4.347   4.312   7.611 -0.1013  0.3417 -0.1084
   18DA      N6  557   4.256   4.217   7.587  0.0315  0.2114 -0.0954
   18DA     H61  558   4.271   4.121   7.614 -2.0977 -0.1462  0.0053
   18DA     H62  559   4.175   4.250   7.537  0.9541  0.2907 -1.6004
   18DA      N1  560   4.315   4.440   7.588 -0.2272  0.2604 -0.3866
   18DA      C2  561   4.411   4.532   7.590 -0.0140  0.0333 -0.1832
   18DA      H2  562   4.393   4.633   7.557  0.2484  1.0275  2.4745
   18DA      N3  563   4.540   4.518   7.616 -0.0795 -0.2188  0.0136
   18DA      C4  564   4.567   4.392   7.657 -0.2495  0.0128  0.8338
   18DA     C3'  565   4.925   4.372   7.925 -0.0126 -0.2171 -0.3337
   18DA     H3'  566   4.880   4.283   7.969 -1.7358  0.0612 -1.4594
   18DA     C2'  567   4.828   4.465   7.854 -0.1984 -0.2575 -0.1349
   18DA    H2'1  568   4.736   4.464   7.913  0.9835 -0.4106  1.7919
   18DA    H2'2  569   4.870   4.566   7.847 -0.1163 -0.4086 -3.4228
   18DA     O3'  570   4.993   4.454   8.017 -0.5181  0.3449 -0.4572
   19DT       P  571   4.931   4.489   8.162 -0.2558 -0.0140 -0.2560
   19DT     O1P  572   5.045   4.551   8.232 -0.2787 -0.0026 -0.2277
   19DT     O2P  573   4.878   4.363   8.219  0.1301 -0.0025  0.1313
   19DT     O5'  574   4.818   4.602   8.144 -0.2285 -0.0737 -0.8361
   19DT     C5'  575   4.840   4.729   8.087  0.4588 -0.2891 -1.0585
   19DT    H5'1  576   4.896   4.707   7.996  0.1124 -1.8959 -0.9133
   19DT    H5'2  577   4.900   4.794   8.151 -2.3601 -0.3325  1.9102
   19DT     C4'  578   4.715   4.813   8.063 -0.1581 -0.6781  0.6437
   19DT     H4'  579   4.750   4.915   8.045 -0.0835 -0.7232  0.5347
   19DT     O4'  580   4.643   4.759   7.954  0.2145 -0.2122  0.1581
   19DT     C1'  581   4.506   4.762   7.984  0.2768  0.0144  0.4274
   19DT     H1'  582   4.455   4.813   7.902  0.8510 -1.5945 -0.9868
   19DT      N1  583   4.442   4.630   7.980 -0.1047  0.1911  0.6100
   19DT      C6  584   4.508   4.517   8.020 -0.4688 -0.2323  0.0355
   19DT      H6  585   4.602   4.529   8.071  0.0366 -0.9769 -0.7025
   19DT      C5  586   4.455   4.394   8.008  0.1247 -0.4982  0.1081
   19DT      C7  587   4.527   4.269   8.054  0.6118 -0.0449  0.5873
   19DT     H71  588   4.629   4.301   8.072  0.3656  0.6991  0.6940
   19DT     H72  589   4.484   4.238   8.149  0.2241 -0.5401  0.2587
   19DT     H73  590   4.525   4.187   7.982  1.3723 -1.1879  1.8401
   19DT      C4  591   4.320   4.376   7.958  0.1249 -0.2330  0.0110
   19DT      O4  592   4.260   4.272   7.932  0.3386 -0.3913  0.1412
   19DT      N3  593   4.259   4.496   7.923  0.6187 -0.0654 -0.2812
   19DT      H3  594   4.162   4.493   7.896  0.0054  0.8472  1.6584
   19DT      C2  595   4.308   4.624   7.946  0.1667  0.1497 -0.5072
   19DT      O2  596   4.233   4.719   7.922 -0.2252  0.1211  0.5303
   19DT     C3'  597   4.620   4.809   8.182 -0.0768 -0.4861  0.7172
   19DT     H3'  598   4.610   4.714   8.235  0.7125 -0.5157  0.8178
   19DT     C2'  599   4.486   4.837   8.115  0.0872 -0.1836  0.5116
   19DT    H2'1  600   4.405   4.801   8.179  0.5357  2.0326  2.4578
   19DT    H2'2  601   4.466   4.944   8.110 -0.5082 -0.2588  1.1237
   19DT     O3'  602   4.640   4.912   8.276  0.3881  0.1270 -0.0428
   20DC       P  603   4.574   4.911   8.423  0.0891  0.0386 -0.1778
   20DC     O1P  604   4.623   5.029   8.498  0.1281  0.1915 -0.4441
   20DC     O2P  605   4.599   4.778   8.483 -0.4293 -0.3453 -0.7913
   20DC     O5'  606   4.414   4.923   8.407  0.1488 -0.0282 -0.8445
   20DC     C5'  607   4.356   5.044   8.363 -0.0605 -0.0027 -0.5021
   20DC    H5'1  608   4.401   5.080   8.271  1.6156  1.8954  0.9829
   20DC    H5'2  609   4.368   5.114   8.445 -1.0695 -0.6493  0.2231
   20DC     C4'  610   4.204   5.037   8.350 -0.0871 -0.1430 -0.1338
   20DC     H4'  611   4.152   5.131   8.335 -1.3633 -0.6040  1.1793
   20DC     O4'  612   4.176   4.960   8.235 -0.0342 -0.7434  0.2467
   20DC     C1'  613   4.061   4.882   8.259 -0.6930  0.1681  0.0927
   20DC     H1'  614   3.994   4.911   8.178 -1.2989  0.9945  0.8607
   20DC      N1  615   4.080   4.737   8.241 -0.0410  0.1543  0.8727
   20DC      C6  616   4.191   4.675   8.292  0.1143 -0.2661  0.0361
   20DC      H6  617   4.273   4.735   8.328  1.1308 -1.6877  0.1458
   20DC      C5  618   4.199   4.541   8.286 -0.1899 -0.2877  0.0851
   20DC      H5  619   4.292   4.497   8.321 -0.5320 -2.1774 -1.1801
   20DC      C4  620   4.091   4.466   8.229 -0.1534 -0.5501  0.3556
   20DC      N4  621   4.093   4.332   8.223 -0.0178 -0.5130 -0.6980
   20DC     H41  622   4.174   4.285   8.263  1.7561  0.1812 -3.2179
   20DC     H42  623   4.019   4.281   8.178 -0.1447 -0.1869 -0.8625
   20DC      N3  624   3.974   4.525   8.199  0.0007 -0.4945 -0.1485
   20DC      C2  625   3.969   4.660   8.215  0.5850 -0.4923  0.0557
   20DC      O2  626   3.859   4.712   8.197  0.7061 -0.3398 -0.2431
   20DC     C3'  627   4.134   4.965   8.465 -0.1197  0.0718 -0.0202
   20DC     H3'  628   4.190   4.881   8.507  1.1590  0.2348 -1.3028
   20DC     C2'  629   4.005   4.923   8.395 -0.3182  0.3003  0.2074
   20DC    H2'1  630   3.955   4.844   8.451 -1.4734  1.6823  1.2028
   20DC    H2'2  631   3.939   5.009   8.380 -1.8785 -1.3199 -3.1313
   20DC     O3'  632   4.093   5.065   8.555 -0.3243 -0.0177 -0.0137
   21DT       P  633   4.073   5.037   8.712  0.2077 -0.4280 -0.0147
   21DT     O1P  634   4.056   5.166   8.783 -0.1044 -0.5152  0.0710
   21DT     O2P  635   4.187   4.949   8.743  0.2058 -0.2962  0.3794
   21DT     O5'  636   3.936   4.952   8.718 -0.1289  0.0812 -0.3706
   21DT     C5'  637   3.815   5.011   8.678 -0.0836  0.4220 -0.0005
   21DT    H5'1  638   3.840   5.063   8.585  2.1548  0.4070  0.5426
   21DT    H5'2  639   3.776   5.079   8.754  0.3604  0.1753  0.4527
   21DT     C4'  640   3.701   4.915   8.646  0.2771  0.0106 -0.0432
   21DT     H4'  641   3.605   4.964   8.637 -0.7384 -1.5651  1.4083
   21DT     O4'  642   3.727   4.827   8.539 -0.0696  0.1008 -0.2013
   21DT     C1'  643   3.656   4.706   8.551  0.1041 -0.0005 -0.1891
   21DT     H1'  644   3.579   4.685   8.477 -1.2344  1.0653  0.8450
   21DT      N1  645   3.750   4.593   8.562  0.3006  0.2487  0.7938
   21DT      C6  646   3.882   4.610   8.592  0.5268  0.0817 -0.0734
   21DT      H6  647   3.923   4.708   8.613  0.0653  0.7831 -2.2347
   21DT      C5  648   3.967   4.505   8.584  0.0268 -0.3328  0.0105
   21DT      C7  649   4.112   4.532   8.617  0.1814 -0.1599 -0.8014
   21DT     H71  650   4.179   4.491   8.542  0.4017 -1.4230  0.0661
   21DT     H72  651   4.132   4.639   8.611  1.8761 -0.4475 -0.6997
   21DT     H73  652   4.141   4.502   8.717  4.1759  2.3449 -0.9596
   21DT      C4  653   3.927   4.375   8.538 -0.2917 -0.1893 -0.1226
   21DT      O4  654   3.998   4.278   8.513  0.0934  0.0257  0.1391
   21DT      N3  655   3.792   4.370   8.506 -0.4858 -0.1439  0.6573
   21DT      H3  656   3.767   4.273   8.490  1.2580 -0.3572 -1.1522
   21DT      C2  657   3.700   4.473   8.516  0.1227  0.4158  0.5503
   21DT      O2  658   3.581   4.446   8.496  0.3678  0.1264 -0.5808
   21DT     C3'  659   3.664   4.822   8.761  0.0260  0.3674  0.1637
   21DT     H3'  660   3.756   4.771   8.789  0.3199  0.5320 -0.5077
   21DT     C2'  661   3.581   4.720   8.684  0.1819  0.5135 -0.1970
   21DT    H2'1  662   3.582   4.622   8.732 -0.4133  0.1812 -0.8460
   21DT    H2'2  663   3.481   4.755   8.659  0.6096  0.8448 -1.5764
   21DT     O3'  664   3.595   4.883   8.868 -0.1848  0.0510  0.2109
   22DG       P  665   3.595   4.825   9.018 -0.0677 -0.2091  0.1102
   22DG     O1P  666   3.530   4.927   9.103 -0.0179 -0.0194 -0.0800
   22DG     O2P  667   3.733   4.776   9.042  0.0114  0.1149  0.3208
   22DG     O5'  668   3.501   4.694   9.021 -0.1054 -0.1890 -0.1893
   22DG     C5'  669   3.364   4.709   8.995 -0.1180 -0.1348 -0.0922
   22DG    H5'1  670   3.346   4.783   8.917  0.8322 -1.3993 -1.5602
   22DG    H5'2  671   3.311   4.743   9.084 -1.0591  0.1605 -0.7502
   22DG     C4'  672   3.302   4.572   8.966 -0.3047 -0.1817  0.5124
   22DG     H4'  673   3.200   4.584   8.931  0.7388  0.5670 -2.5292
   22DG     O4'  674   3.367   4.525   8.851 -0.3162  0.6354  0.1650
   22DG     C1'  675   3.358   4.384   8.846  0.1961  0.6101 -0.1211
   22DG     H1'  676   3.279   4.370   8.771 -0.3674  0.3443  0.5139
   22DG      N9  677   3.491   4.331   8.811 -0.0429 -0.2253  0.1948
   22DG      C8  678   3.609   4.397   8.835  0.0808 -0.2334 -0.3692
   22DG      H8  679   3.616   4.495   8.880 -0.6504  0.5756 -1.9490
   22DG      N7  680   3.709   4.320   8.800  0.0456 -0.2221 -0.4972
   22DG      C5  681   3.658   4.193   8.771  0.0396 -0.3723  0.1406
   22DG      C6  682   3.720   4.070   8.738  0.2986 -0.2903  0.3187
   22DG      O6  683   3.838   4.043   8.715  0.4531  0.1474  0.5737
   22DG      N1  684   3.627   3.971   8.714  0.2061 -0.1330  0.0288
   22DG      H1  685   3.652   3.885   8.668 -3.2271 -0.3030 -1.8680
   22DG      C2  686   3.490   3.988   8.720  0.1902 -0.2737  0.0662
   22DG      N2  687   3.412   3.882   8.694 -0.4145  0.2641 -0.3364
   22DG     H21  688   3.461   3.794   8.686  0.0454  0.6120 -1.5735
   22DG     H22  689   3.314   3.896   8.714 -0.0414  3.9958 -0.3070
   22DG      N3  690   3.431   4.105   8.749  0.1891 -0.2569 -0.0042
   22DG      C4  691   3.522   4.203   8.772  0.0555 -0.1019 -0.1388
   22DG     C3'  692   3.327   4.464   9.071 -0.0730 -0.3944  0.2382
   22DG     H3'  693   3.421   4.470   9.127 -1.0428  0.6558  1.8311
   22DG     C2'  694   3.315   4.338   8.985 -0.2007  0.0634 -0.4171
   22DG    H2'1  695   3.370   4.259   9.036 -0.9140 -0.5649 -0.6116
   22DG    H2'2  696   3.214   4.299   8.974  0.3440 -2.0655  1.4499
   22DG     O3'  697   3.216   4.474   9.157 -0.1546  0.1153  0.0736
   23DC       P  698   3.230   4.417   9.307  0.0351  0.0134  0.0174
   23DC     O1P  699   3.098   4.443   9.367 -0.0815  0.2127 -0.3200
   23DC     O2P  700   3.354   4.467   9.369 -0.0503  0.0435  0.1636
   23DC     O5'  701   3.241   4.257   9.288  0.0048  0.0113  0.0195
   23DC     C5'  702   3.129   4.176   9.258 -0.0717  0.2570 -0.3728
   23DC    H5'1  703   3.066   4.214   9.178 -1.5080 -2.1846 -0.4751
   23DC    H5'2  704   3.072   4.171   9.351  0.0742 -1.9987 -0.3618
   23DC     C4'  705   3.153   4.030   9.221  0.0355  0.1379  0.1586
   23DC     H4'  706   3.055   3.993   9.191  1.0787 -2.5732 -0.1901
   23DC     O4'  707   3.224   4.015   9.100 -0.8129 -0.2097 -0.2974
   23DC     C1'  708   3.303   3.898   9.097 -0.0859  0.2698  0.0030
   23DC     H1'  709   3.278   3.828   9.018  0.3415 -0.3527  0.4102
   23DC      N1  710   3.447   3.925   9.080  0.0086 -0.0636  0.2770
   23DC      C6  711   3.497   4.044   9.123 -0.1453  0.2268 -0.3387
   23DC      H6  712   3.433   4.119   9.166  2.1979  1.4378  1.2938
   23DC      C5  713   3.630   4.069   9.129 -0.0923 -0.1264  0.0086
   23DC      H5  714   3.661   4.165   9.167 -2.2287  0.7325 -0.2542
   23DC      C4  715   3.714   3.962   9.082  0.1172  0.0132  0.0662
   23DC      N4  716   3.846   3.974   9.062  0.0847  0.1435 -0.0766
   23DC     H41  717   3.890   4.061   9.087  0.5116 -0.1750  0.2905
   23DC     H42  718   3.900   3.906   9.009  0.2921 -0.8390  1.3449
   23DC      N3  719   3.667   3.848   9.031  0.1597 -0.0333  0.1299
   23DC      C2  720   3.533   3.827   9.032  0.1408  0.0896  0.1986
   23DC      O2  721   3.491   3.722   8.985 -0.0676  0.3287 -0.1588
   23DC     C3'  722   3.226   3.945   9.325  0.0839 -0.1647 -0.1233
   23DC     H3'  723   3.309   3.995   9.375  0.6193 -0.0700 -1.0794
   23DC     C2'  724   3.281   3.835   9.234 -0.1016 -0.1872 -0.2072
   23DC    H2'1  725   3.373   3.794   9.275  0.3230  1.7019  0.8302
   23DC    H2'2  726   3.218   3.746   9.235 -0.5150  0.1028  0.5339
   23DC     O3'  727   3.141   3.892   9.423 -0.2916  0.4164 -0.1308
   24DG       P  728   3.193   3.830   9.562 -0.3118  0.2922 -0.1783
   24DG     O1P  729   3.078   3.774   9.636  0.0145 -0.3805 -0.1739
   24DG     O2P  730   3.277   3.930   9.632 -0.1260 -0.0567  0.1031
   24DG     O5'  731   3.289   3.704   9.532 -0.4742  0.2466 -0.5004
   24DG     C5'  732   3.232   3.578   9.506 -0.2387  0.0845 -0.2282
   24DG    H5'1  733   3.159   3.575   9.425  1.6496 -3.1471 -2.0691
   24DG    H5'2  734   3.179   3.534   9.590 -1.4952 -2.5156 -2.2143
   24DG     C4'  735   3.332   3.465   9.481 -0.0082  0.3041 -0.3022
   24DG     H4'  736   3.272   3.374   9.482  0.5396 -0.1277 -2.3176
   24DG     O4'  737   3.396   3.474   9.356  0.2800  0.4897 -0.1406
   24DG     C1'  738   3.534   3.448   9.371  0.3013  0.3335 -0.6049
   24DG     H1'  739   3.560   3.378   9.292 -2.3914 -1.2342 -0.2298
   24DG      N9  740   3.626   3.562   9.357  0.2648  0.5124  0.5421
   24DG      C8  741   3.607   3.698   9.366 -0.0281  0.4403  1.0524
   24DG      H8  742   3.514   3.740   9.403  0.2048  1.3522  0.6219
   24DG      N7  743   3.708   3.775   9.336  0.0216  0.0173  0.1075
   24DG      C5  744   3.801   3.678   9.300 -0.0324  0.2253 -0.6209
   24DG      C6  745   3.934   3.694   9.252  0.2676  0.3777  0.2334
   24DG      O6  746   3.995   3.799   9.237 -0.4856  0.6551 -1.0381
   24DG      N1  747   3.995   3.573   9.226 -0.2339  0.1616  0.0449
   24DG      H1  748   4.095   3.565   9.211 -0.4264 -1.3872 -0.7027
   24DG      C2  749   3.937   3.448   9.236 -0.0707  0.0717 -0.1048
   24DG      N2  750   4.015   3.340   9.218 -0.1484 -0.0500  0.2771
   24DG     H21  751   4.115   3.355   9.208 -0.2038 -1.0294 -2.2089
   24DG     H22  752   3.973   3.250   9.234 -1.9277  0.6301 -0.3255
   24DG      N3  753   3.810   3.433   9.274 -0.1328  0.1557 -0.2791
   24DG      C4  754   3.749   3.552   9.298  0.0531  0.1662  0.1600
   24DG     C3'  755   3.439   3.456   9.590  0.0054  0.3858 -0.3077
   24DG     H3'  756   3.461   3.559   9.620 -1.4951  1.1147 -1.5293
   24DG     C2'  757   3.548   3.385   9.509 -0.4862  0.0254 -0.6607
   24DG    H2'1  758   3.647   3.399   9.551  0.3412  1.4527 -2.9001
   24DG    H2'2  759   3.511   3.283   9.501 -3.4598  0.9444  0.0552
   24DG     O3'  760   3.396   3.385   9.703  0.2181 -0.0586 -0.5039
   25DC       P  761   3.479   3.377   9.841 -0.1180  0.0978 -0.2895
   25DC     O1P  762   3.418   3.279   9.932 -0.2576  0.2843 -0.1807
   25DC     O2P  763   3.506   3.516   9.886  0.0606 -0.0413  0.0360
   25DC     O5'  764   3.620   3.308   9.806  0.0206 -0.2355  0.9089
   25DC     C5'  765   3.635   3.174   9.763  0.1585  0.0076  0.1883
   25DC    H5'1  766   3.576   3.155   9.674 -0.6093 -0.6933  0.8248
   25DC    H5'2  767   3.596   3.106   9.839 -2.4202  1.5075  0.3181
   25DC     C4'  768   3.781   3.138   9.737  0.1554 -0.1185  0.3388
   25DC     H4'  769   3.778   3.030   9.725 -2.9402 -0.1025  0.0271
   25DC     O4'  770   3.836   3.193   9.619 -0.2858 -0.2854  0.0530
   25DC     C1'  771   3.972   3.226   9.631 -0.3836  0.1297  0.0330
   25DC     H1'  772   4.030   3.175   9.554  0.2803  0.6703  0.1658
   25DC      N1  773   3.998   3.371   9.625 -0.2920  0.1113 -0.0130
   25DC      C6  774   3.899   3.463   9.644 -0.4687  0.1042 -0.8691
   25DC      H6  775   3.805   3.426   9.681  0.3897 -1.5273 -0.2204
   25DC      C5  776   3.916   3.594   9.615  0.4902  0.3387  0.6540
   25DC      H5  777   3.832   3.661   9.619 -0.0585 -0.3236  0.5381
   25DC      C4  778   4.044   3.637   9.568 -0.0415  0.5077 -0.6638
   25DC      N4  779   4.073   3.762   9.527 -0.1452  0.7799  0.0724
   25DC     H41  780   4.002   3.833   9.527 -1.3510 -0.3655 -0.8223
   25DC     H42  781   4.173   3.770   9.511 -0.0128  0.9682  0.9635
   25DC      N3  782   4.142   3.548   9.552 -0.2411  0.1053  0.3044
   25DC      C2  783   4.119   3.416   9.575 -0.1270  0.0970  0.3678
   25DC      O2  784   4.208   3.334   9.551 -0.2863  0.1384 -0.4016
   25DC     C3'  785   3.886   3.156   9.846  0.6241 -0.0079 -0.1254
   25DC     H3'  786   3.869   3.245   9.906  0.9685 -0.6590  0.9679
   25DC     C2'  787   4.016   3.173   9.768  0.5757  0.6475 -0.0627
   25DC    H2'1  788   4.074   3.246   9.825 -0.1966  0.3399  1.1400
   25DC    H2'2  789   4.073   3.080   9.768 -0.3195  0.0867  0.2744
   25DC     O3'  790   3.886   3.046   9.935  0.5524 -0.1459 -0.2949
   25DC     H3T  791   3.944   3.082  10.003 -1.0322 -1.5248  1.9258
   26G      O5'  792   5.043   3.968   9.190 -0.3688  0.0228  1.1945
   26G      H5T  793   5.037   3.967   9.094  1.6849  1.5110  0.9766
   26G      C5'  794   5.142   3.871   9.217 -0.1089  0.0687  0.4252
   26G     H5'1  795   5.202   3.891   9.306 -0.3723  0.8072  0.4463
   26G     H5'2  796   5.207   3.860   9.130 -0.6862  0.4823 -0.0648
   26G      C4'  797   5.089   3.729   9.232  0.1191 -0.0633  0.0111
   26G      H4'  798   5.172   3.658   9.236 -0.8752 -1.3055 -0.5133
   26G      O4'  799   5.017   3.728   9.353  0.1938 -0.1808  0.0554
   26G      C1'  800   4.902   3.647   9.344  0.2491 -0.2739  0.1695
   26G      H1'  801   4.902   3.569   9.420 -0.2191 -0.1163  0.3392
   26G       N9  802   4.782   3.732   9.360  0.1344 -0.3485 -0.2701
   26G       C8  803   4.766   3.868   9.350 -0.5372 -0.3615  0.4951
   26G       H8  804   4.849   3.935   9.333 -2.1800  1.6443  0.0787
   26G       N7  805   4.647   3.910   9.383 -0.5299  0.2177 -0.2006
   26G       C5  806   4.579   3.792   9.414  0.2745 -0.1369  0.2382
   26G       C6  807   4.448   3.774   9.465  0.2642 -0.3435  0.1355
   26G       O6  808   4.363   3.860   9.489 -0.2131 -0.7277 -0.1608
   26G       N1  809   4.409   3.642   9.481 -0.0498 -0.3323 -0.4883
   26G       H1  810   4.315   3.608   9.500  0.8055 -1.1971  2.8858
   26G       C2  811   4.496   3.539   9.451 -0.0760 -0.1969 -1.0304
   26G       N2  812   4.458   3.414   9.480 -0.3303 -0.0009 -0.5109
   26G      H21  813   4.372   3.391   9.528  0.5472 -1.0181  0.6426
   26G      H22  814   4.526   3.343   9.454 -0.4000 -0.1372 -0.3245
   26G       N3  815   4.620   3.554   9.404  0.3433 -0.3059  0.0266
   26G       C4  816   4.656   3.683   9.383  0.1846 -0.2176  0.2997
   26G      C3'  817   4.987   3.677   9.131  0.4353 -0.1908 -0.2460
   26G      H3'  818   4.922   3.760   9.101  2.2982  3.1202  3.8226
   26G      C2'  819   4.901   3.578   9.208  0.2012  0.1585 -0.0549
   26G     H2'1  820   4.800   3.563   9.169 -0.1572 -0.1978  0.9661
   26G      O2'  821   4.956   3.450   9.230 -0.0674  0.1109  0.3625
   26G     HO'2  822   5.042   3.453   9.188 -0.1131  2.7644  0.2626
   26G      O3'  823   5.049   3.626   9.016  0.0634 -0.1880 -0.4491
   27C        P  824   4.960   3.606   8.883 -0.0139 -0.1373 -0.4047
   27C      O1P  825   5.047   3.536   8.786  0.3183 -0.2547 -0.0307
   27C      O2P  826   4.904   3.736   8.840 -0.1549 -0.2331 -0.5136
   27C      O5'  827   4.839   3.505   8.915 -0.0556  0.0820  0.1396
   27C      C5'  828   4.861   3.367   8.933  0.1830  0.1010 -0.0101
   27C     H5'1  829   4.937   3.354   9.010 -0.9829 -1.2020  0.9884
   27C     H5'2  830   4.902   3.317   8.845  3.0429 -0.5342  1.5652
   27C      C4'  831   4.740   3.290   8.984 -0.1076  0.4360 -0.1924
   27C      H4'  832   4.771   3.186   8.993 -2.7748 -0.6490 -2.3004
   27C      O4'  833   4.686   3.337   9.106 -0.5131  0.1821 -0.2708
   27C      C1'  834   4.546   3.325   9.096 -0.5238 -0.0458  0.1304
   27C      H1'  835   4.511   3.265   9.180  0.0096 -0.6376 -0.0529
   27C       N1  836   4.478   3.455   9.097 -0.0245  0.2171  0.3739
   27C       C6  837   4.536   3.575   9.064  0.0997 -0.0388 -0.3634
   27C       H6  838   4.635   3.576   9.022  1.1540 -0.0228  1.9832
   27C       C5  839   4.471   3.690   9.090  0.1158 -0.0691 -0.1846
   27C       H5  840   4.525   3.783   9.079  0.3300  0.2885  2.9120
   27C       C4  841   4.338   3.680   9.143  0.2067 -0.3617 -0.0135
   27C       N4  842   4.267   3.785   9.186  0.1509 -0.5344  0.3166
   27C      H41  843   4.303   3.877   9.165 -0.8712  0.2052  1.6267
   27C      H42  844   4.167   3.774   9.189  0.1369 -0.4701  0.1091
   27C       N3  845   4.281   3.563   9.175 -0.2076 -0.1634 -0.0187
   27C       C2  846   4.351   3.449   9.152 -0.0344 -0.1266  0.3148
   27C       O2  847   4.297   3.344   9.187 -0.1040 -0.4492 -0.7268
   27C      C3'  848   4.629   3.287   8.879 -0.1328 -0.0865 -0.1550
   27C      H3'  849   4.615   3.387   8.838  0.1967  0.4024  0.8862
   27C      C2'  850   4.513   3.247   8.969 -0.2667  0.3026 -0.1514
   27C     H2'1  851   4.417   3.281   8.930 -0.0110  0.9750 -0.2019
   27C      O2'  852   4.499   3.113   9.010  0.0678  0.3488  0.1168
   27C     HO'2  853   4.504   3.057   8.932  0.6162 -1.1124  1.1558
   27C      O3'  854   4.661   3.188   8.785 -0.2564 -0.1248 -0.1570
   28G        P  855   4.590   3.190   8.640 -0.0480  0.2049 -0.2545
   28G      O1P  856   4.641   3.071   8.569  0.0062 -0.0522  0.2121
   28G      O2P  857   4.612   3.326   8.585 -0.4228  0.4953  0.3091
   28G      O5'  858   4.431   3.178   8.659  0.0727 -0.0173  0.6897
   28G      C5'  859   4.370   3.053   8.684 -0.0796 -0.1353 -0.2114
   28G     H5'1  860   4.416   2.990   8.760 -2.6084 -1.8083  0.0564
   28G     H5'2  861   4.366   2.995   8.592 -3.5006 -0.3287 -0.0661
   28G      C4'  862   4.226   3.066   8.732  0.1093  0.0279  0.3200
   28G      H4'  863   4.179   2.970   8.756 -2.3022  0.7090 -1.3281
   28G      O4'  864   4.215   3.149   8.846 -0.1360 -0.4412  0.6434
   28G      C1'  865   4.088   3.211   8.844  0.0065 -0.1602 -0.6376
   28G      H1'  866   4.033   3.170   8.929  0.1961  2.9671  1.1466
   28G       N9  867   4.102   3.357   8.860 -0.0881 -0.2495  0.3246
   28G       C8  868   4.207   3.436   8.821 -0.4187 -0.0985 -0.2865
   28G       H8  869   4.296   3.396   8.775 -1.9507 -1.3782 -2.2738
   28G       N7  870   4.186   3.563   8.845 -0.3164 -0.0714 -0.3390
   28G       C5  871   4.054   3.566   8.889 -0.2301 -0.1348 -0.0749
   28G       C6  872   3.974   3.681   8.910  0.2433  0.1313  0.3005
   28G       O6  873   4.014   3.796   8.922  0.2940  0.1293  0.1467
   28G       N1  874   3.840   3.650   8.932  0.1904  0.3195  0.2426
   28G       H1  875   3.775   3.727   8.943 -1.1342 -0.8010  0.5701
   28G       C2  876   3.791   3.521   8.935 -0.1405  0.4303 -0.3908
   28G       N2  877   3.668   3.512   8.986 -0.0324  0.1839 -0.1773
   28G      H21  878   3.610   3.594   8.994  0.0492  0.3249 -0.9853
   28G      H22  879   3.625   3.428   9.024 -0.4715  0.3771 -0.2426
   28G       N3  880   3.870   3.413   8.925  0.0387  0.4297  0.8639
   28G       C4  881   3.997   3.442   8.887 -0.2301 -0.1294 -0.5464
   28G      C3'  882   4.136   3.130   8.627 -0.1083 -0.2493  0.3356
   28G      H3'  883   4.189   3.211   8.577  1.2186 -1.9260 -1.0714
   28G      C2'  884   4.018   3.177   8.712 -0.4813  0.4250 -0.5336
   28G     H2'1  885   3.961   3.265   8.682 -0.4934  0.5215 -0.2406
   28G      O2'  886   3.930   3.073   8.747  0.1901 -0.0242 -0.1389
   28G     HO'2  887   3.918   3.010   8.675 -0.2003 -1.0812  0.8259
   28G      O3'  888   4.096   3.034   8.532 -0.0835  0.5117 -0.4606
   29C        P  889   4.043   3.067   8.384  0.1361 -0.1432 -0.6858
   29C      O1P  890   4.014   2.942   8.310  0.5119 -0.2189 -0.7084
   29C      O2P  891   4.132   3.167   8.321  0.5183 -0.2948 -0.3893
   29C      O5'  892   3.904   3.143   8.412  0.1579 -0.3247 -0.0578
   29C      C5'  893   3.785   3.076   8.444  0.0087  0.1628  0.4246
   29C     H5'1  894   3.795   3.014   8.534 -1.8852 -2.3377 -0.9331
   29C     H5'2  895   3.754   3.011   8.362 -0.1944 -0.2664  0.8353
   29C      C4'  896   3.676   3.175   8.483  0.1879  0.5450 -0.0463
   29C      H4'  897   3.588   3.115   8.508 -1.0987  1.5770 -1.8174
   29C      O4'  898   3.706   3.254   8.596  0.6542  0.2119  0.0641
   29C      C1'  899   3.637   3.376   8.588 -0.1686 -0.2573 -0.1401
   29C      H1'  900   3.578   3.402   8.676  0.2943  2.8281 -0.6306
   29C       N1  901   3.732   3.490   8.582 -0.3567 -0.0708  0.4251
   29C       C6  902   3.858   3.475   8.534 -0.3027  0.1803  0.4920
   29C       H6  903   3.899   3.381   8.500 -0.6913 -0.6284  2.1628
   29C       C5  904   3.941   3.582   8.533 -0.1208  0.0374 -0.4326
   29C       H5  905   4.037   3.583   8.483  0.0792 -1.3589 -0.1179
   29C       C4  906   3.894   3.705   8.589  0.2036  0.1320 -0.3642
   29C       N4  907   3.972   3.813   8.592  0.4653 -0.0624 -0.0132
   29C      H41  908   4.054   3.822   8.534  0.2271  1.8305 -0.1355
   29C      H42  909   3.921   3.898   8.615 -1.8118 -0.8221 -1.7985
   29C       N3  910   3.771   3.720   8.639  0.2181  0.0199 -0.2929
   29C       C2  911   3.687   3.614   8.623 -0.0698  0.2252 -0.1684
   29C       O2  912   3.570   3.641   8.647  0.0319  0.1313  0.4342
   29C      C3'  913   3.624   3.270   8.375 -0.3885 -0.0701 -0.3182
   29C      H3'  914   3.715   3.310   8.330 -0.6025  0.4542 -0.2944
   29C      C2'  915   3.560   3.383   8.456 -0.1518 -0.0624 -0.1406
   29C     H2'1  916   3.559   3.477   8.402 -2.5763 -0.5154 -0.9941
   29C      O2'  917   3.425   3.362   8.489 -0.1201  0.2532  0.1938
   29C     HO'2  918   3.414   3.272   8.518 -1.7968  0.0766 -0.7981
   29C      O3'  919   3.533   3.217   8.282 -0.1805 -0.2641 -0.4128
   30A        P  920   3.506   3.271   8.133 -0.0299  0.1943 -0.2737
   30A      O1P  921   3.425   3.166   8.066  0.3861  0.0095 -0.4882
   30A      O2P  922   3.638   3.297   8.071  0.2076  0.0743  0.1849
   30A      O5'  923   3.429   3.412   8.151 -0.5389 -0.1529  0.2806
   30A      C5'  924   3.296   3.411   8.199 -0.7097 -0.6050 -0.1914
   30A     H5'1  925   3.290   3.335   8.277 -1.8358  0.6573  1.0001
   30A     H5'2  926   3.225   3.383   8.121 -3.6103  3.0761  0.8257
   30A      C4'  927   3.243   3.548   8.240 -0.3086 -0.6895  0.6275
   30A      H4'  928   3.144   3.535   8.283 -1.4962  2.8373 -0.7082
   30A      O4'  929   3.332   3.597   8.338 -0.1241  0.0136  0.1231
   30A      C1'  930   3.339   3.738   8.339 -0.3954  0.0294 -0.1463
   30A      H1'  931   3.297   3.771   8.434  3.1708  1.0620  1.2294
   30A       N9  932   3.478   3.780   8.318 -0.4252  0.0093 -0.3958
   30A       C8  933   3.588   3.704   8.288 -0.4648 -0.5229  0.7526
   30A       H8  934   3.589   3.605   8.244  1.3999 -0.2410  0.0782
   30A       N7  935   3.703   3.765   8.302 -0.7476  0.2367 -0.1174
   30A       C5  936   3.671   3.890   8.353  0.2899  0.4442  0.0478
   30A       C6  937   3.742   4.006   8.386  0.2055  0.5308 -0.0663
   30A       N6  938   3.875   4.022   8.394  0.1063  0.8430  1.1817
   30A      H61  939   3.938   3.945   8.377 -0.9195  0.1972  0.1715
   30A      H62  940   3.911   4.113   8.417  1.3545  0.1926  1.9275
   30A       N1  941   3.678   4.118   8.422 -0.3139  0.4169 -0.6221
   30A       C2  942   3.546   4.113   8.419 -0.3266 -0.2326  0.4631
   30A       H2  943   3.500   4.205   8.455  3.4985  1.6968  0.9027
   30A       N3  944   3.467   4.016   8.378  0.0563 -0.6561  0.7170
   30A       C4  945   3.534   3.902   8.348  0.2213 -0.3381 -0.1709
   30A      C3'  946   3.239   3.663   8.139 -0.4560 -0.9246  0.3650
   30A      H3'  947   3.320   3.662   8.067 -0.9961 -1.3748 -0.2524
   30A      C2'  948   3.243   3.786   8.230 -0.3407 -0.3754 -0.3746
   30A     H2'1  949   3.281   3.875   8.181 -1.7754  1.2444  1.3455
   30A      O2'  950   3.113   3.820   8.271 -0.3086 -0.6376 -0.0492
   30A     HO'2  951   3.112   3.901   8.323 -0.2038 -0.0209 -0.9851
   30A      O3'  952   3.126   3.658   8.055 -0.1791 -0.0044 -0.0737
   31G        P  953   3.108   3.741   7.918 -0.0505  0.1063 -0.0223
   31G      O1P  954   2.969   3.729   7.872  0.0339  0.1078 -0.2772
   31G      O2P  955   3.205   3.679   7.825  0.7568  0.5295  0.5149
   31G      O5'  956   3.143   3.897   7.939 -0.0087  0.0210  0.5789
   31G      C5'  957   3.037   3.991   7.934  0.0214  0.0231 -0.0600
   31G     H5'1  958   2.952   3.959   7.993 -2.0594  0.2735 -2.7085
   31G     H5'2  959   3.000   4.001   7.831  0.2670  1.3119 -0.0374
   31G      C4'  960   3.077   4.130   7.981 -0.5262  0.1188  0.1258
   31G      H4'  961   2.990   4.194   7.997 -0.2321  0.7903 -0.8825
   31G      O4'  962   3.170   4.128   8.087  0.1082  0.0521 -0.4263
   31G      C1'  963   3.265   4.229   8.060  0.3431 -0.0875 -0.1208
   31G      H1'  964   3.262   4.302   8.141  0.1598  1.8027 -1.7596
   31G       N9  965   3.403   4.179   8.069  0.1539 -0.6120 -0.1062
   31G       C8  966   3.462   4.062   8.026 -0.0473 -0.9283  0.4598
   31G       H8  967   3.403   3.975   8.005 -0.1675 -0.7146 -0.1251
   31G       N7  968   3.590   4.059   8.052 -0.0762 -0.0980  0.7219
   31G       C5  969   3.623   4.187   8.095 -0.2257  0.1208  0.1917
   31G       C6  970   3.750   4.244   8.122 -0.1919 -0.0850  0.4760
   31G       O6  971   3.862   4.195   8.109 -0.1359  0.1323  0.1134
   31G       N1  972   3.737   4.374   8.169  0.1695  0.5337 -1.0670
   31G       H1  973   3.819   4.425   8.200  0.5780  0.0619 -1.3516
   31G       C2  974   3.618   4.443   8.177 -0.0284  0.0491  0.4812
   31G       N2  975   3.620   4.576   8.191  0.0970  0.1303 -0.2656
   31G      H21  976   3.707   4.625   8.205 -0.3776  0.7304  0.7289
   31G      H22  977   3.531   4.621   8.175 -0.7110 -1.6100 -0.8451
   31G       N3  978   3.500   4.391   8.139  0.0997 -0.0939  0.2774
   31G       C4  979   3.508   4.262   8.101 -0.3118  0.0188 -0.2056
   31G      C3'  980   3.152   4.192   7.863 -0.3419  0.1622  0.2654
   31G      H3'  981   3.211   4.119   7.809 -0.0228 -0.3111  1.2299
   31G      C2'  982   3.238   4.300   7.928  0.1894 -0.0548 -0.0721
   31G     H2'1  983   3.329   4.318   7.871  0.1220 -0.2490 -0.2407
   31G      O2'  984   3.177   4.424   7.958 -0.1434 -0.0910 -0.5811
   31G     HO'2  985   3.186   4.479   7.880  2.5483  1.9988  0.9963
   31G      O3'  986   3.055   4.236   7.770 -0.1600 -0.0021 -0.0042
   32A        P  987   3.086   4.272   7.616  0.0796 -0.1214  0.0154
   32A      O1P  988   2.959   4.314   7.552  0.0992  0.3098  0.2536
   32A      O2P  989   3.154   4.158   7.551 -0.2817 -0.3626  0.0526
   32A      O5'  990   3.195   4.389   7.623 -0.1830  0.1577 -0.4738
   32A      C5'  991   3.158   4.522   7.653 -0.0012  0.0172  0.3962
   32A     H5'1  992   3.086   4.534   7.734  0.2623 -1.2803  0.8538
   32A     H5'2  993   3.109   4.559   7.564  1.4777 -2.4292 -1.5604
   32A      C4'  994   3.262   4.626   7.695  0.0787  0.1137 -0.0393
   32A      H4'  995   3.198   4.709   7.726 -1.1677 -1.6422  2.4351
   32A      O4'  996   3.347   4.592   7.802 -0.0340 -0.6023 -0.1701
   32A      C1'  997   3.480   4.635   7.787 -0.1239 -0.2738 -0.0547
   32A      H1'  998   3.505   4.698   7.872 -1.7476  1.0394 -0.5083
   32A       N9  999   3.584   4.531   7.770  0.2458  0.2078 -0.7846
   32A       C8 1000   3.559   4.401   7.737  0.1816 -0.0326  0.1898
   32A       H8 1001   3.464   4.358   7.707  0.2291  0.0951 -0.1415
   32A       N7 1002   3.665   4.325   7.732 -0.2676 -0.6340 -0.4438
   32A       C5 1003   3.761   4.406   7.791 -0.4459 -0.5506 -0.2658
   32A       C6 1004   3.895   4.397   7.833 -0.5408  0.0430  0.1782
   32A       N6 1005   3.978   4.291   7.834 -0.1404  0.3573  0.5964
   32A      H61 1006   3.944   4.203   7.797 -2.1853  1.3085  0.0164
   32A      H62 1007   4.069   4.309   7.872  0.4747 -1.4803  0.0681
   32A       N1 1008   3.965   4.502   7.878 -0.3076 -0.1627  0.2962
   32A       C2 1009   3.909   4.622   7.873  0.1996  0.0795  0.3388
   32A       H2 1010   3.960   4.712   7.904  1.0392 -0.3269  0.1472
   32A       N3 1011   3.784   4.648   7.838  0.0478 -0.4980  0.4340
   32A       C4 1012   3.718   4.536   7.802  0.0250 -0.4354  0.2848
   32A      C3' 1013   3.358   4.670   7.584 -0.1224  0.1186 -0.2114
   32A      H3' 1014   3.393   4.578   7.538 -1.2751 -1.5015  1.9394
   32A      C2' 1015   3.472   4.728   7.666 -0.3707  0.0336  0.1992
   32A     H2'1 1016   3.563   4.705   7.610 -0.4332 -0.8892  0.4621
   32A      O2' 1017   3.459   4.864   7.701  0.3798  0.1253  0.1509
   32A     HO'2 1018   3.368   4.894   7.690 -0.3386 -1.8807  0.3206
   32A      O3' 1019   3.306   4.764   7.493  0.1452  0.2427 -0.2335
   33U        P 1020   3.363   4.773   7.342  0.0875  0.2901 -0.2526
   33U      O1P 1021   3.277   4.873   7.276 -0.7030 -0.2828 -0.1132
   33U      O2P 1022   3.362   4.635   7.289  0.1239  0.1063  0.2134
   33U      O5' 1023   3.515   4.822   7.354  0.2947 -0.5368  0.6714
   33U      C5' 1024   3.546   4.955   7.390 -0.3388 -0.1646 -0.1241
   33U     H5'1 1025   3.503   4.983   7.487  0.7598 -1.0632  0.6564
   33U     H5'2 1026   3.510   5.015   7.306 -1.3653 -1.4611 -0.6406
   33U      C4' 1027   3.697   4.974   7.406 -0.3582 -0.1544  0.0513
   33U      H4' 1028   3.711   5.081   7.421 -2.6183 -0.1529  2.9243
   33U      O4' 1029   3.741   4.909   7.523 -0.3868 -0.1426  0.0685
   33U      C1' 1030   3.875   4.869   7.503 -0.2394  0.3209  0.1115
   33U      H1' 1031   3.943   4.912   7.577  2.5705 -0.7185 -1.7197
   33U       N1 1032   3.897   4.723   7.505 -0.5071  0.2810  0.1608
   33U       C6 1033   3.810   4.633   7.451 -0.3974 -0.1145  0.6436
   33U       H6 1034   3.722   4.678   7.407  0.6474  1.7057  0.3264
   33U       C5 1035   3.832   4.500   7.438 -0.1669  0.0088 -0.2483
   33U       H5 1036   3.754   4.450   7.382 -1.1466  1.2412 -0.0359
   33U       C4 1037   3.954   4.442   7.490  0.4913  0.6736 -1.0228
   33U       O4 1038   3.984   4.323   7.489 -0.4049  0.4224 -0.1387
   33U       N3 1039   4.043   4.538   7.536 -0.0342  0.5536  0.2738
   33U       H3 1040   4.136   4.502   7.552 -1.2532 -2.1510  2.1543
   33U       C2 1041   4.022   4.675   7.540 -0.1675  0.5638 -0.6422
   33U       O2 1042   4.119   4.746   7.566 -0.3345  0.4133  0.4208
   33U      C3' 1043   3.789   4.924   7.295 -0.0623  0.0911  0.1845
   33U      H3' 1044   3.763   4.824   7.261 -0.6796  0.5252 -0.6555
   33U      C2' 1045   3.923   4.912   7.365  0.0162 -0.4845 -0.0581
   33U     H2'1 1046   3.988   4.845   7.309  1.7450  0.3873  0.8238
   33U      O2' 1047   3.984   5.039   7.373 -0.2754 -0.3804  0.5956
   33U     HO'2 1048   4.059   5.036   7.312 -1.3991 -2.0602 -0.7920
   33U      O3' 1049   3.785   5.019   7.190 -0.1444  0.0615  0.1608
   34G        P 1050   3.834   4.990   7.040  0.1872 -0.0225  0.2832
   34G      O1P 1051   3.798   5.111   6.962  0.3708 -0.0206  0.2022
   34G      O2P 1052   3.770   4.864   6.997  0.1692  0.0371  0.1350
   34G      O5' 1053   3.993   4.975   7.055  0.1732 -0.4844 -0.0221
   34G      C5' 1054   4.082   5.083   7.074 -0.0945 -0.2624 -0.0265
   34G     H5'1 1055   4.054   5.150   7.155  1.8200  1.1103 -0.4359
   34G     H5'2 1056   4.093   5.142   6.983 -2.3188  1.4503  0.7011
   34G      C4' 1057   4.220   5.023   7.100  0.0365 -0.1094 -0.3547
   34G      H4' 1058   4.284   5.110   7.114  0.7389 -0.8180  0.9782
   34G      O4' 1059   4.222   4.941   7.215  0.1871  0.0424 -0.2489
   34G      C1' 1060   4.311   4.832   7.196 -0.0123 -0.1300 -0.1999
   34G      H1' 1061   4.395   4.845   7.264 -0.9405  0.9111  0.7907
   34G       N9 1062   4.252   4.698   7.210 -0.2130  0.0328  0.5675
   34G       C8 1063   4.130   4.649   7.172  0.2620 -0.7043 -0.0493
   34G       H8 1064   4.054   4.711   7.127 -0.7578 -2.7025 -1.2406
   34G       N7 1065   4.110   4.523   7.197  0.2131 -0.6525  0.1809
   34G       C5 1066   4.233   4.479   7.243  0.4160 -0.5309 -0.2422
   34G       C6 1067   4.279   4.349   7.278  0.1110 -0.4626  0.4170
   34G       O6 1068   4.214   4.246   7.293 -0.3695 -0.1985  0.1666
   34G       N1 1069   4.417   4.335   7.287  0.1710  0.2280  0.6864
   34G       H1 1070   4.458   4.245   7.308  1.3691  0.0843 -1.9089
   34G       C2 1071   4.495   4.448   7.287 -0.3374  0.5870  0.1801
   34G       N2 1072   4.626   4.425   7.308 -0.4531 -0.1397  0.1315
   34G      H21 1073   4.657   4.331   7.326 -1.7692 -0.8367 -1.0631
   34G      H22 1074   4.683   4.508   7.304 -0.7391  0.0336 -0.4949
   34G       N3 1075   4.455   4.573   7.262 -0.0594  0.6372 -0.0185
   34G       C4 1076   4.322   4.583   7.237 -0.1481 -0.0162  0.1913
   34G      C3' 1077   4.270   4.938   6.984 -0.0984 -0.2763 -0.2928
   34G      H3' 1078   4.193   4.880   6.933 -0.0309 -0.5514 -0.0822
   34G      C2' 1079   4.373   4.854   7.059 -0.0448 -0.1431 -0.2161
   34G     H2'1 1080   4.395   4.759   7.009  0.5778 -0.7818  1.2201
   34G      O2' 1081   4.491   4.920   7.098 -0.3090  0.2071 -0.0077
   34G     HO'2 1082   4.491   5.010   7.063  0.6278 -0.8693 -3.0849
   34G      O3' 1083   4.340   5.011   6.885 -1.0909  0.5438 -0.4000
   35C        P 1084   4.380   4.946   6.743 -0.1472  0.0917  0.0656
   35C      O1P 1085   4.432   5.050   6.652  0.2138  0.1658  0.3537
   35C      O2P 1086   4.263   4.871   6.692 -0.3871  0.6067 -0.1468
   35C      O5' 1087   4.493   4.834   6.764 -0.0856  0.1064 -0.1889
   35C      C5' 1088   4.628   4.872   6.774  0.0300 -0.3898  0.1949
   35C     H5'1 1089   4.628   4.945   6.855 -2.1171 -1.4425  1.2258
   35C     H5'2 1090   4.659   4.914   6.678 -1.4301 -2.9335 -1.5057
   35C      C4' 1091   4.716   4.752   6.808  0.3366 -0.2430 -0.0779
   35C      H4' 1092   4.817   4.790   6.824 -0.0595  0.5832  0.5168
   35C      O4' 1093   4.663   4.691   6.923  0.7820 -0.4550  0.0197
   35C      C1' 1094   4.684   4.552   6.927 -0.1925 -0.6210 -0.1819
   35C      H1' 1095   4.741   4.527   7.017  0.3727  2.8112  0.5468
   35C       N1 1096   4.566   4.465   6.917 -0.3281 -0.4132 -0.4094
   35C       C6 1097   4.442   4.513   6.885 -0.3351  0.0971  0.3491
   35C       H6 1098   4.442   4.612   6.842 -2.9250 -0.3340 -0.8573
   35C       C5 1099   4.329   4.440   6.900 -0.4559  0.3348  0.6064
   35C       H5 1100   4.233   4.479   6.870 -0.7944  0.2433  1.5172
   35C       C4 1101   4.350   4.307   6.948 -0.1572  0.1201 -0.1198
   35C       N4 1102   4.251   4.219   6.967  0.2402 -0.2929  0.0643
   35C      H41 1103   4.154   4.239   6.949 -0.0658 -1.6752  0.0202
   35C      H42 1104   4.274   4.130   7.009  2.4448  1.0056  1.8500
   35C       N3 1105   4.469   4.256   6.984 -0.1768  0.0069 -0.2132
   35C       C2 1106   4.576   4.337   6.968  0.0530 -0.2845 -0.1564
   35C       O2 1107   4.688   4.293   6.993  0.0788  0.0239  0.2717
   35C      C3' 1108   4.727   4.640   6.705 -0.1903 -0.1614 -0.2280
   35C      H3' 1109   4.626   4.618   6.670  0.1324 -1.2447 -0.5207
   35C      C2' 1110   4.774   4.533   6.804 -0.2404 -0.2304 -0.2780
   35C     H2'1 1111   4.761   4.434   6.762 -0.3637 -0.4221  0.2054
   35C      O2' 1112   4.910   4.552   6.837 -0.4453  0.4456  0.2247
   35C     HO'2 1113   4.957   4.542   6.754 -1.0784  0.6292 -0.1662
   35C      O3' 1114   4.822   4.669   6.605  0.1407  0.0264  0.1391
   36C        P 1115   4.801   4.627   6.451  0.3316  0.2881  0.0409
   36C      O1P 1116   4.898   4.704   6.371  0.0446  0.8927  0.2625
   36C      O2P 1117   4.657   4.631   6.416  0.3296 -0.0564  0.0058
   36C      O5' 1118   4.843   4.474   6.474 -0.2118  0.1189 -0.0698
   36C      C5' 1119   4.977   4.434   6.493 -0.3335 -0.2420  0.0386
   36C     H5'1 1120   5.022   4.498   6.569  0.6133 -0.2893 -0.4621
   36C     H5'2 1121   5.044   4.442   6.408  0.8582 -0.7506  0.8983
   36C      C4' 1122   4.993   4.288   6.534  0.2297 -0.0759  0.4258
   36C      H4' 1123   5.099   4.264   6.545 -0.0695 -1.4433  0.5222
   36C      O4' 1124   4.927   4.254   6.654  0.3451 -0.1088  0.4800
   36C      C1' 1125   4.864   4.128   6.648  0.0489  0.0162  0.8970
   36C      H1' 1126   4.905   4.063   6.725  1.0649 -1.8339 -1.0957
   36C       N1 1127   4.718   4.131   6.667  0.0077 -0.0976  0.6059
   36C       C6 1128   4.641   4.240   6.640  0.0598 -0.2605 -0.2512
   36C       H6 1129   4.676   4.339   6.614 -2.3712  0.4017 -1.2035
   36C       C5 1130   4.507   4.233   6.650  0.0625  0.2764  0.2549
   36C       H5 1131   4.443   4.317   6.629 -1.1454 -1.3107 -3.0741
   36C       C4 1132   4.446   4.105   6.676  0.2828  0.2309  0.5566
   36C       N4 1133   4.313   4.100   6.689  0.2541 -0.5083  0.0379
   36C      H41 1134   4.256   4.183   6.681 -0.8779 -1.0545  1.9080
   36C      H42 1135   4.268   4.017   6.724  0.6355 -1.2147 -1.0783
   36C       N3 1136   4.520   3.999   6.710  0.0075 -0.3136 -0.4995
   36C       C2 1137   4.654   4.010   6.692  0.0482 -0.2934 -0.1889
   36C       O2 1138   4.717   3.905   6.698 -0.0457 -0.3213  0.3259
   36C      C3' 1139   4.944   4.197   6.422  0.0430 -0.0766  0.5080
   36C      H3' 1140   4.854   4.250   6.391  1.5008  2.2127 -0.0607
   36C      C2' 1141   4.897   4.079   6.507  0.0844  0.1571  0.8559
   36C     H2'1 1142   4.807   4.040   6.460  0.0356  0.8225  0.3767
   36C      O2' 1143   4.996   3.981   6.527  0.0098 -0.0913  0.0603
   36C     HO'2 1144   5.012   3.936   6.444 -0.4956  2.2459 -1.3781
   36C      O3' 1145   5.036   4.171   6.318 -0.4462  0.1990  0.0024
   37C        P 1146   5.000   4.084   6.187 -0.0248  0.0371 -0.0086
   37C      O1P 1147   5.128   4.066   6.116 -0.3220 -0.2803 -0.4731
   37C      O2P 1148   4.895   4.164   6.120 -0.0894  0.5678  0.7143
   37C      O5' 1149   4.946   3.946   6.249 -0.2177  0.1896  0.1672
   37C      C5' 1150   5.027   3.830   6.248 -0.0291  0.3060  1.1069
   37C     H5'1 1151   5.113   3.838   6.314  1.1611 -0.0468 -0.3547
   37C     H5'2 1152   5.071   3.818   6.149 -0.0512 -0.8107  1.2166
   37C      C4' 1153   4.941   3.709   6.281 -0.1020  0.1441  0.3424
   37C      H4' 1154   5.004   3.622   6.299 -0.6956  0.0416  2.2281
   37C      O4' 1155   4.858   3.726   6.394 -0.1879  0.0189  0.2989
   37C      C1' 1156   4.742   3.646   6.386  0.0848 -0.3902  0.3889
   37C      H1' 1157   4.745   3.568   6.462 -1.2065  0.1506  1.0120
   37C       N1 1158   4.612   3.715   6.386  0.1472 -0.2684  0.1066
   37C       C6 1159   4.608   3.848   6.359  0.1443 -0.2986 -0.0439
   37C       H6 1160   4.690   3.895   6.306 -1.5811  1.5737 -1.1858
   37C       C5 1161   4.496   3.917   6.388  0.4607  0.0813  0.2940
   37C       H5 1162   4.496   4.025   6.389 -2.3095  0.1524  0.3081
   37C       C4 1163   4.381   3.850   6.441  0.3778  0.0194  0.0361
   37C       N4 1164   4.259   3.903   6.463  0.3833  0.0950 -0.1146
   37C      H41 1165   4.238   3.993   6.423 -0.1586 -0.3072 -0.7386
   37C      H42 1166   4.193   3.855   6.521  1.9057 -1.7601  0.1843
   37C       N3 1167   4.385   3.718   6.459  0.3025 -0.0975 -0.7956
   37C       C2 1168   4.501   3.649   6.436  0.4681 -0.3557  0.7216
   37C       O2 1169   4.499   3.528   6.457  0.2863 -0.4682  0.0741
   37C      C3' 1170   4.846   3.665   6.170  0.3164 -0.1408  0.0924
   37C      H3' 1171   4.783   3.749   6.141  3.2475  2.7079  1.3314
   37C      C2' 1172   4.765   3.569   6.256  0.1488  0.0420  0.1408
   37C     H2'1 1173   4.672   3.542   6.205  0.4722 -2.0232  0.5442
   37C      O2' 1174   4.839   3.453   6.286 -0.0814 -0.1496 -0.0305
   37C     HO'2 1175   4.913   3.453   6.225  0.3579 -3.0066  0.3427
   37C      O3' 1176   4.901   3.598   6.059  0.1373 -0.2639  0.0763
   38U        P 1177   4.837   3.556   5.918  0.1643 -0.1495  0.0294
   38U      O1P 1178   4.929   3.465   5.846 -0.0363 -0.2783 -0.0655
   38U      O2P 1179   4.790   3.675   5.843  0.2964  0.0344  0.2370
   38U      O5' 1180   4.705   3.473   5.958  0.2523 -0.0013  0.6281
   38U      C5' 1181   4.724   3.334   5.978  0.0249 -0.0387  0.5880
   38U     H5'1 1182   4.805   3.314   6.047  0.2217 -0.5672  0.2068
   38U     H5'2 1183   4.735   3.280   5.884  0.6752  0.7014  0.2279
   38U      C4' 1184   4.591   3.277   6.027  0.0339 -0.3956  0.2025
   38U      H4' 1185   4.610   3.172   6.048 -1.2882 -0.6277  0.2908
   38U      O4' 1186   4.545   3.335   6.146  0.3387 -0.1622  0.2086
   38U      C1' 1187   4.404   3.348   6.146  0.3462 -0.0847 -0.0809
   38U      H1' 1188   4.368   3.292   6.232 -0.8483 -0.3977 -0.7584
   38U       N1 1189   4.339   3.480   6.147  0.2891 -0.1185  0.7654
   38U       C6 1190   4.399   3.586   6.085 -0.1568 -0.2140  0.1655
   38U       H6 1191   4.496   3.572   6.040 -0.2783  1.9604 -0.9080
   38U       C5 1192   4.341   3.707   6.097 -0.4241 -0.2883 -0.3496
   38U       H5 1193   4.394   3.792   6.056 -0.8415 -0.2559 -0.8414
   38U       C4 1194   4.208   3.731   6.149 -0.1691  0.0232  0.1609
   38U       O4 1195   4.153   3.839   6.163 -0.3936 -0.0971  0.2125
   38U       N3 1196   4.151   3.616   6.202 -0.1475 -0.0491  0.0283
   38U       H3 1197   4.060   3.628   6.244 -0.4953  1.7525 -1.1440
   38U       C2 1198   4.209   3.490   6.193  0.1175  0.0575  0.2513
   38U       O2 1199   4.138   3.393   6.218  0.8173 -0.5056  0.0671
   38U      C3' 1200   4.476   3.289   5.928  0.1469 -0.4203  0.0664
   38U      H3' 1201   4.469   3.384   5.874 -0.1306 -0.5952 -0.2117
   38U      C2' 1202   4.356   3.275   6.021 -0.1801  0.4718 -0.2074
   38U     H2'1 1203   4.272   3.324   5.972  1.3435  3.1349 -0.3182
   38U      O2' 1204   4.328   3.141   6.058 -0.4179  0.5782  0.0041
   38U     HO'2 1205   4.247   3.105   6.022 -0.0309  0.1717 -0.4691
   38U      O3' 1206   4.484   3.176   5.844  0.0299 -0.0443 -0.4549
   39U        P 1207   4.430   3.186   5.692  0.1813 -0.0991 -0.5125
   39U      O1P 1208   4.472   3.064   5.620  0.1675 -0.4863  0.1216
   39U      O2P 1209   4.483   3.312   5.636 -0.5560  0.0380 -0.9120
   39U      O5' 1210   4.270   3.198   5.707  0.2798  0.5260  0.0913
   39U      C5' 1211   4.198   3.077   5.700  0.2776  0.5352 -0.0355
   39U     H5'1 1212   4.246   3.001   5.761  0.6796  0.3900 -0.5192
   39U     H5'2 1213   4.190   3.044   5.596  1.0660  0.6012 -0.1229
   39U      C4' 1214   4.056   3.099   5.749  0.0619 -0.4556 -0.1921
   39U      H4' 1215   4.004   3.008   5.778 -1.0603 -0.4561 -2.0056
   39U      O4' 1216   4.047   3.181   5.863 -0.1735 -0.3060 -0.3158
   39U      C1' 1217   3.933   3.263   5.854  0.2686  0.3589  0.0175
   39U      H1' 1218   3.864   3.232   5.932  1.8130  1.1057  1.7309
   39U       N1 1219   3.953   3.408   5.876  0.0774  0.4125 -0.1491
   39U       C6 1220   4.068   3.470   5.836  0.9513 -0.4619  0.9435
   39U       H6 1221   4.144   3.401   5.803  1.0099  0.8992 -2.0441
   39U       C5 1222   4.085   3.604   5.845 -0.3443 -0.1978 -0.2181
   39U       H5 1223   4.177   3.653   5.820  0.3532 -0.7046  1.2287
   39U       C4 1224   3.980   3.687   5.899  0.0942  0.1908  0.0457
   39U       O4 1225   3.994   3.808   5.915 -0.5203  0.2126  0.4270
   39U       N3 1226   3.863   3.619   5.931 -0.1044  0.1935 -0.6457
   39U       H3 1227   3.788   3.676   5.967 -1.4355 -1.5104 -0.5968
   39U       C2 1228   3.843   3.484   5.911 -0.2518  0.2328 -0.7709
   39U       O2 1229   3.728   3.443   5.925  0.0118 -0.2338  0.1174
   39U      C3' 1230   3.973   3.173   5.643 -0.0563 -0.0616  0.1721
   39U      H3' 1231   4.031   3.254   5.599 -1.4497  0.3421 -0.9764
   39U      C2' 1232   3.857   3.226   5.727  0.0258 -0.0534  0.2823
   39U     H2'1 1233   3.812   3.308   5.671  0.5587  0.8646  1.1726
   39U      O2' 1234   3.767   3.119   5.750 -0.4516  0.2358 -0.1965
   39U     HO'2 1235   3.793   3.046   5.694  0.9000 -0.2756  1.0122
   39U      O3' 1236   3.924   3.085   5.544 -0.2772  0.4223 -0.1512
   40C        P 1237   3.872   3.142   5.403  0.0350  0.5936 -0.1998
   40C      O1P 1238   3.851   3.023   5.317 -0.1837  0.1538  0.4503
   40C      O2P 1239   3.968   3.245   5.359  0.4971  0.3387  0.2088
   40C      O5' 1240   3.730   3.213   5.430 -0.2462  0.0229 -0.1584
   40C      C5' 1241   3.613   3.139   5.459 -0.0043 -0.3113 -0.0229
   40C     H5'1 1242   3.646   3.068   5.534  0.8293 -0.9542 -0.9684
   40C     H5'2 1243   3.585   3.076   5.374 -3.2864 -0.6760  1.1897
   40C      C4' 1244   3.488   3.214   5.505 -0.0068 -0.2684 -0.0977
   40C      H4' 1245   3.406   3.145   5.526  0.1182 -0.6503 -0.8110
   40C      O4' 1246   3.507   3.287   5.624 -0.4034 -0.0612 -0.1607
   40C      C1' 1247   3.448   3.414   5.606  0.0029  0.0474 -0.7448
   40C      H1' 1248   3.379   3.433   5.688 -0.0867  0.5785 -0.9404
   40C       N1 1249   3.549   3.522   5.604  0.0606  0.0028 -0.2124
   40C       C6 1250   3.676   3.510   5.556  0.0289  0.3790 -0.3917
   40C       H6 1251   3.711   3.414   5.521  1.0601  0.4167  0.4967
   40C       C5 1252   3.769   3.604   5.583  0.5708 -0.1854 -0.2627
   40C       H5 1253   3.872   3.594   5.555  0.9319  2.4174 -0.1414
   40C       C4 1254   3.725   3.725   5.647  0.1034 -0.2864 -0.3908
   40C       N4 1255   3.813   3.823   5.668 -0.6679  0.2023  0.6628
   40C      H41 1256   3.906   3.811   5.629 -1.2776  0.0719 -0.8092
   40C      H42 1257   3.782   3.908   5.713 -1.4265 -0.6577  1.8072
   40C       N3 1258   3.596   3.743   5.681  0.2717 -0.7729  0.5331
   40C       C2 1259   3.508   3.642   5.659 -0.2078 -0.2954  0.2501
   40C       O2 1260   3.394   3.662   5.699 -0.2645 -0.3380  0.1096
   40C      C3' 1261   3.440   3.308   5.395  0.2166  0.1492  0.1615
   40C      H3' 1262   3.528   3.352   5.348  1.7039  0.6037  3.1316
   40C      C2' 1263   3.367   3.414   5.477 -0.2770  0.3813 -0.5704
   40C     H2'1 1264   3.352   3.509   5.425 -2.0869  1.5165  1.8125
   40C      O2' 1265   3.241   3.364   5.518  0.1508 -0.0344  0.2555
   40C     HO'2 1266   3.226   3.292   5.457  4.3367 -1.2665  0.3188
   40C      O3' 1267   3.354   3.247   5.302  0.1391  0.1816  0.2112
   41C        P 1268   3.341   3.308   5.153  0.3269 -0.2563  0.0118
   41C      O1P 1269   3.263   3.216   5.067 -0.1421  0.0823  0.0729
   41C      O2P 1270   3.477   3.345   5.109  0.3230 -0.4866 -0.2001
   41C      O5' 1271   3.275   3.452   5.184  0.7379 -0.0526 -0.0596
   41C      C5' 1272   3.135   3.457   5.201  0.7317 -0.1259 -0.0861
   41C     H5'1 1273   3.097   3.386   5.274 -1.6376 -1.7568 -2.6962
   41C     H5'2 1274   3.085   3.428   5.109 -1.8126 -1.7509  1.6813
   41C      C4' 1275   3.082   3.596   5.235  0.8868 -0.1483  0.2605
   41C      H4' 1276   2.976   3.583   5.259  0.4833  0.7242 -0.9481
   41C      O4' 1277   3.135   3.640   5.358 -0.0483  0.0987  0.5845
   41C      C1' 1278   3.151   3.780   5.354 -0.3612  0.1164 -0.4825
   41C      H1' 1279   3.098   3.809   5.445  2.0841 -0.0825  1.0920
   41C       N1 1280   3.290   3.827   5.350 -0.1273 -0.4703  0.4264
   41C       C6 1281   3.393   3.741   5.324  0.0288 -0.0617 -0.3303
   41C       H6 1282   3.378   3.644   5.280  1.4444  1.2737 -4.1849
   41C       C5 1283   3.522   3.779   5.340 -0.1377  0.5753 -0.4575
   41C       H5 1284   3.598   3.706   5.320  0.3113  1.0778 -0.5939
   41C       C4 1285   3.549   3.916   5.373  0.1756  0.2484  0.6893
   41C       N4 1286   3.672   3.960   5.403  0.5164  0.0663 -0.4008
   41C      H41 1287   3.748   3.896   5.386 -1.5441 -2.6804  0.0942
   41C      H42 1288   3.685   4.050   5.447  0.5401 -0.7711  1.4055
   41C       N3 1289   3.450   4.001   5.401  0.0777  0.2724  0.2732
   41C       C2 1290   3.322   3.958   5.382  0.3528 -0.5138  0.1406
   41C       O2 1291   3.237   4.039   5.418  0.6645  0.0544 -0.3814
   41C      C3' 1292   3.094   3.712   5.137 -0.0569 -0.2428  0.0156
   41C      H3' 1293   3.196   3.721   5.098 -0.9374  1.4110 -2.1222
   41C      C2' 1294   3.074   3.829   5.232 -0.1869  0.2037 -0.5575
   41C     H2'1 1295   3.110   3.922   5.187  0.5614  0.4613  0.5206
   41C      O2' 1296   2.937   3.838   5.266  0.0875  0.6976  0.4570
   41C     HO'2 1297   2.889   3.790   5.198 -1.3444  1.4341  0.8982
   41C      O3' 1298   3.000   3.693   5.033  0.1133 -0.3923 -0.1127
   42G        P 1299   3.026   3.778   4.899 -0.0022 -0.3205 -0.0896
   42G      O1P 1300   2.899   3.769   4.822 -0.2375  0.3400  0.2108
   42G      O2P 1301   3.156   3.734   4.844 -0.0610  0.0892 -0.5568
   42G      O5' 1302   3.044   3.932   4.939 -0.1873 -0.3052 -0.0639
   42G      C5' 1303   2.940   4.019   4.980 -0.0091  0.2246 -0.7165
   42G     H5'1 1304   2.881   3.977   5.062 -0.6141  0.8607 -0.8195
   42G     H5'2 1305   2.872   4.030   4.896  0.3515 -1.8380 -1.3408
   42G      C4' 1306   2.980   4.159   5.028 -0.3345 -0.0426  0.3666
   42G      H4' 1307   2.888   4.207   5.061 -0.1957 -0.1136  0.8593
   42G      O4' 1308   3.083   4.155   5.124  0.2826 -0.3736 -0.2992
   42G      C1' 1309   3.165   4.269   5.110 -0.0910 -0.0410  0.2092
   42G      H1' 1310   3.159   4.344   5.189  0.0073  0.7389 -0.5157
   42G       N9 1311   3.307   4.228   5.109  0.0022  0.2917 -0.5276
   42G       C8 1312   3.356   4.104   5.079 -0.0801  0.2997 -0.7001
   42G       H8 1313   3.291   4.019   5.061 -2.3644  1.6039  0.8560
   42G       N7 1314   3.486   4.100   5.087 -0.1193  0.4266  0.0812
   42G       C5 1315   3.523   4.230   5.120 -0.2434  0.5209 -0.1540
   42G       C6 1316   3.653   4.283   5.137  0.0758 -0.2044 -0.3089
   42G       O6 1317   3.764   4.233   5.122  0.1571 -0.0876 -0.1033
   42G       N1 1318   3.653   4.417   5.175 -0.0259 -0.4033  0.3902
   42G       H1 1319   3.743   4.461   5.186  0.2865 -1.2666  1.5104
   42G       C2 1320   3.537   4.492   5.174  0.0890 -0.2348 -0.8232
   42G       N2 1321   3.542   4.626   5.186 -0.7044 -0.2737  0.0058
   42G      H21 1322   3.630   4.672   5.168  0.0380 -0.0044  3.5797
   42G      H22 1323   3.452   4.670   5.177 -0.8985 -0.9304 -1.5833
   42G       N3 1324   3.414   4.447   5.148 -0.3586  0.5431 -0.1053
   42G       C4 1325   3.414   4.313   5.127 -0.2794  0.4198  0.6353
   42G      C3' 1326   3.043   4.234   4.911 -0.1600 -0.1611  0.3845
   42G      H3' 1327   3.108   4.169   4.852  1.0370  0.5480  0.8940
   42G      C2' 1328   3.127   4.340   4.981 -0.1082 -0.0757  0.1953
   42G     H2'1 1329   3.218   4.362   4.926  1.6332 -0.8745  2.5999
   42G      O2' 1330   3.056   4.459   5.008 -0.1756  0.0932 -0.6993
   42G     HO'2 1331   3.057   4.512   4.928  2.7901 -0.5255 -1.1925
   42G      O3' 1332   2.947   4.297   4.830  0.1585 -0.1931 -0.0221
   43U        P 1333   2.976   4.324   4.674 -0.1312 -0.2085 -0.0784
   43U      O1P 1334   2.849   4.381   4.624 -0.1647 -0.2849 -0.0807
   43U      O2P 1335   3.035   4.206   4.606  0.3760  0.3859 -0.6812
   43U      O5' 1336   3.083   4.444   4.678  0.0564 -0.3853  0.1816
   43U      C5' 1337   3.043   4.578   4.691  0.1223 -0.4021  0.5677
   43U     H5'1 1338   2.968   4.587   4.770 -0.4458 -0.5449  0.0471
   43U     H5'2 1339   2.995   4.611   4.599 -1.3315 -1.2767  0.9839
   43U      C4' 1340   3.160   4.671   4.726  0.0679 -0.0732 -0.1029
   43U      H4' 1341   3.120   4.768   4.753  0.7456  0.1653  0.0563
   43U      O4' 1342   3.244   4.617   4.826  0.1412 -0.5484 -0.4150
   43U      C1' 1343   3.374   4.666   4.804 -0.1029  0.4164  0.2153
   43U      H1' 1344   3.410   4.730   4.884 -0.9143  0.5605  0.4726
   43U       N1 1345   3.463   4.548   4.800 -0.0170  0.4865  0.0361
   43U       C6 1346   3.432   4.427   4.747 -0.1168  0.4128  0.2614
   43U       H6 1347   3.334   4.417   4.701 -1.1297 -2.5095  2.6925
   43U       C5 1348   3.524   4.329   4.737 -0.6022 -0.0862  0.6001
   43U       H5 1349   3.495   4.241   4.682  2.5404 -0.6274 -0.4226
   43U       C4 1350   3.650   4.333   4.807 -0.0772  0.1941 -0.3363
   43U       O4 1351   3.727   4.237   4.815  0.0177  0.2716 -0.3119
   43U       N3 1352   3.678   4.458   4.861  0.0713 -0.2864  0.7301
   43U       H3 1353   3.768   4.471   4.906 -1.0491  1.9375  2.5743
   43U       C2 1354   3.590   4.565   4.853  0.2672 -0.2010 -0.4153
   43U       O2 1355   3.631   4.678   4.876  0.3369 -0.1965 -0.5567
   43U      C3' 1356   3.255   4.686   4.608  0.0567  0.2555 -0.0691
   43U      H3' 1357   3.276   4.592   4.557 -2.4056 -1.0363  1.1225
   43U      C2' 1358   3.384   4.739   4.670  0.1793 -0.0811 -0.0368
   43U     H2'1 1359   3.476   4.711   4.618 -0.3070  0.4772 -1.2284
   43U      O2' 1360   3.369   4.876   4.697  0.2807 -0.1753  0.5142
   43U     HO'2 1361   3.296   4.902   4.640  0.8628 -3.4042 -2.0089
   43U      O3' 1362   3.204   4.785   4.521 -0.4823 -0.1685 -0.2405
   44A        P 1363   3.250   4.797   4.367  0.1565  0.3115 -0.0206
   44A      O1P 1364   3.171   4.907   4.308  0.1891  0.1534 -0.3658
   44A      O2P 1365   3.240   4.666   4.297 -0.3944  0.3843 -0.0882
   44A      O5' 1366   3.404   4.837   4.388  0.3221 -0.4013  0.1763
   44A      C5' 1367   3.447   4.972   4.390  0.0639 -0.3168  0.1383
   44A     H5'1 1368   3.386   5.028   4.460  2.2784  1.3688  0.8318
   44A     H5'2 1369   3.421   5.012   4.292 -0.8630 -1.2543 -0.0190
   44A      C4' 1370   3.596   4.993   4.417  0.0662 -0.1937  0.0283
   44A      H4' 1371   3.609   5.092   4.461 -0.4536 -1.1316  2.4727
   44A      O4' 1372   3.639   4.921   4.530 -0.2257 -0.7295 -0.1974
   44A      C1' 1373   3.774   4.881   4.517  0.0576  0.1996 -0.1849
   44A      H1' 1374   3.835   4.932   4.591  0.8397  0.5988 -1.0942
   44A       N9 1375   3.792   4.735   4.529  0.5384  0.2670 -0.0640
   44A       C8 1376   3.697   4.637   4.514  0.2254  0.5147  0.2810
   44A       H8 1377   3.595   4.663   4.489  0.2484  0.7639  0.4501
   44A       N7 1378   3.740   4.517   4.544 -0.2737  0.2414 -0.0785
   44A       C5 1379   3.874   4.538   4.574 -0.3152  0.2049  0.1392
   44A       C6 1380   3.984   4.453   4.594 -0.1364  0.2113 -0.7474
   44A       N6 1381   3.970   4.321   4.611  0.1841  0.3269  0.4834
   44A      H61 1382   3.880   4.276   4.611  1.0195 -1.4778  1.5884
   44A      H62 1383   4.056   4.270   4.628 -0.7343 -0.8915  1.6680
   44A       N1 1384   4.110   4.497   4.592  0.0885 -0.2986  0.8431
   44A       C2 1385   4.127   4.627   4.571  0.0278 -0.4237 -0.0092
   44A       H2 1386   4.231   4.655   4.565  0.9494 -2.1780  4.1247
   44A       N3 1387   4.035   4.720   4.546  0.4397 -0.1479 -0.5100
   44A       C4 1388   3.910   4.668   4.546  0.3687  0.0119  0.1186
   44A      C3' 1389   3.693   4.956   4.305  0.0460 -0.1650  0.0012
   44A      H3' 1390   3.659   4.862   4.262  1.4026 -0.7063  0.0778
   44A      C2' 1391   3.823   4.938   4.384  0.2246 -0.2193 -0.3044
   44A     H2'1 1392   3.886   4.863   4.336 -0.0759 -1.6724  1.4774
   44A      O2' 1393   3.885   5.059   4.417  0.6156 -0.4753 -0.1001
   44A     HO'2 1394   3.870   5.111   4.338 -0.9492 -1.4221 -0.4565
   44A      O3' 1395   3.705   5.051   4.201  0.2800 -0.0393  0.1411
   45G        P 1396   3.746   5.011   4.051 -0.1208 -0.0799  0.0400
   45G      O1P 1397   3.732   5.129   3.962 -0.3971 -0.0409  0.1357
   45G      O2P 1398   3.682   4.885   4.011  0.1592 -0.2703  0.1852
   45G      O5' 1399   3.903   4.983   4.073 -0.1192 -0.2554 -0.1967
   45G      C5' 1400   3.995   5.088   4.091 -0.1903 -0.1517 -0.4390
   45G     H5'1 1401   3.962   5.144   4.178 -0.5063  0.1203 -0.7282
   45G     H5'2 1402   4.015   5.155   4.006  2.3613  0.5907  0.6408
   45G      C4' 1403   4.134   5.032   4.120 -0.1547  0.0677 -0.1778
   45G      H4' 1404   4.202   5.112   4.149 -1.7175  0.9303  1.2529
   45G      O4' 1405   4.126   4.935   4.222  0.4748  0.1381 -0.0585
   45G      C1' 1406   4.229   4.839   4.210  0.4201  0.0261  0.3701
   45G      H1' 1407   4.293   4.846   4.298  0.8615 -1.4633  0.1931
   45G       N9 1408   4.173   4.702   4.209  0.5402 -0.0228 -0.4747
   45G       C8 1409   4.043   4.658   4.203  0.3665  0.2737  0.8608
   45G       H8 1410   3.958   4.724   4.192 -0.6595 -0.9966  0.9275
   45G       N7 1411   4.031   4.530   4.221  0.5624  0.0223 -0.6759
   45G       C5 1412   4.159   4.489   4.257  0.1931 -0.1695  0.4840
   45G       C6 1413   4.205   4.358   4.286  0.1147 -0.2038  0.4482
   45G       O6 1414   4.136   4.257   4.297 -0.3130 -0.0116 -0.3584
   45G       N1 1415   4.342   4.357   4.309  0.1056  0.0084  0.5119
   45G       H1 1416   4.388   4.268   4.312  2.1458  0.9308 -1.0110
   45G       C2 1417   4.423   4.469   4.306  0.1376 -0.0207  0.2809
   45G       N2 1418   4.553   4.440   4.319  0.1043 -0.1158  0.3959
   45G      H21 1419   4.582   4.344   4.307 -0.4039 -0.5664  2.3003
   45G      H22 1420   4.623   4.513   4.322  0.5392 -0.4412 -1.1272
   45G       N3 1421   4.380   4.592   4.277 -0.1296  0.0225  0.8486
   45G       C4 1422   4.249   4.592   4.243  0.1502 -0.2287 -0.2639
   45G      C3' 1423   4.197   4.950   4.007  0.1894  0.2609 -0.1287
   45G      H3' 1424   4.126   4.882   3.959 -0.2302 -2.5180  3.9126
   45G      C2' 1425   4.304   4.871   4.082 -0.0956  0.0593  0.0726
   45G     H2'1 1426   4.329   4.771   4.045  0.4712 -0.5763  2.0463
   45G      O2' 1427   4.417   4.944   4.125 -0.3062  0.5999 -0.2777
   45G     HO'2 1428   4.492   4.902   4.083 -0.3686  0.8689 -0.6691
   45G      O3' 1429   4.255   5.036   3.911 -0.3515  0.3935 -0.3415
   46A        P 1430   4.290   4.986   3.762  0.0720  0.0563 -0.1304
   46A      O1P 1431   4.359   5.100   3.698 -0.0612  0.1049 -0.1861
   46A      O2P 1432   4.166   4.935   3.700 -0.4003  0.1240  0.7358
   46A      O5' 1433   4.396   4.865   3.778 -0.1892 -0.1573 -0.0083
   46A      C5' 1434   4.536   4.881   3.779 -0.1243 -0.6223 -0.8137
   46A     H5'1 1435   4.562   4.956   3.854 -1.3458 -1.7286  0.7742
   46A     H5'2 1436   4.577   4.914   3.683 -0.7651 -0.2069 -0.9486
   46A      C4' 1437   4.622   4.762   3.819  0.4861  0.1349  0.1810
   46A      H4' 1438   4.727   4.791   3.829  1.0517 -1.3477 -1.0240
   46A      O4' 1439   4.576   4.709   3.941  0.4549 -0.1019  0.0676
   46A      C1' 1440   4.597   4.570   3.948 -0.1139 -0.2253 -0.5676
   46A      H1' 1441   4.658   4.541   4.034  1.7842  1.9074 -1.1056
   46A       N9 1442   4.476   4.486   3.960 -0.2995  0.1251  0.0501
   46A       C8 1443   4.346   4.524   3.937 -0.2738 -0.0241 -0.3432
   46A       H8 1444   4.323   4.622   3.898  1.0392  0.5120  0.1846
   46A       N7 1445   4.259   4.429   3.957 -0.2728  0.1634  0.5886
   46A       C5 1446   4.341   4.322   3.989 -0.1440  0.2151  0.4320
   46A       C6 1447   4.318   4.184   4.006  0.1837  0.0539 -0.4201
   46A       N6 1448   4.194   4.136   4.000  0.0535  0.3292  0.0552
   46A      H61 1449   4.116   4.193   3.967  1.1333  1.6926 -0.2344
   46A      H62 1450   4.186   4.036   4.010  2.4517  0.2152  1.5233
   46A       N1 1451   4.417   4.098   4.034  0.3030  0.1820 -0.4519
   46A       C2 1452   4.539   4.147   4.047  0.2618  0.1965 -0.1174
   46A       H2 1453   4.607   4.069   4.077 -0.4028 -1.1104 -1.8724
   46A       N3 1454   4.578   4.272   4.023  0.0086  0.2490 -0.2554
   46A       C4 1455   4.474   4.354   3.999 -0.1702  0.2753  0.5760
   46A      C3' 1456   4.623   4.648   3.717 -0.1521  0.0987  0.2107
   46A      H3' 1457   4.524   4.625   3.678 -0.1644  0.9004 -0.2334
   46A      C2' 1458   4.665   4.539   3.815  0.0533 -0.4123 -0.4379
   46A     H2'1 1459   4.624   4.443   3.782 -3.1803  0.3122  1.0663
   46A      O2' 1460   4.803   4.531   3.846 -0.0598 -0.0018  0.1870
   46A     HO'2 1461   4.849   4.572   3.772 -0.2236  1.8141  1.0148
   46A      O3' 1462   4.714   4.672   3.612 -0.3679  0.5720  0.1309
   47G        P 1463   4.693   4.611   3.464 -0.1906  0.3457  0.1995
   47G      O1P 1464   4.804   4.650   3.375 -0.5659  0.2116 -0.3261
   47G      O2P 1465   4.557   4.626   3.409 -0.0334 -0.0848 -0.3168
   47G      O5' 1466   4.716   4.454   3.494 -0.3209  0.2974  0.0433
   47G      C5' 1467   4.848   4.406   3.510 -0.4474 -0.2164 -0.4037
   47G     H5'1 1468   4.900   4.460   3.590 -0.2310  0.3438 -0.9113
   47G     H5'2 1469   4.906   4.415   3.418 -1.0904 -3.1153 -1.1968
   47G      C4' 1470   4.851   4.257   3.544 -0.2540 -0.1653 -0.1893
   47G      H4' 1471   4.958   4.239   3.544 -0.0939  0.6431  1.0531
   47G      O4' 1472   4.787   4.228   3.666 -0.3794 -0.1137 -0.2425
   47G      C1' 1473   4.720   4.104   3.665  0.0684 -0.3560 -0.3420
   47G      H1' 1474   4.757   4.051   3.752  2.7339  1.3013 -0.3509
   47G       N9 1475   4.573   4.112   3.669  0.0751 -0.2687 -0.2939
   47G       C8 1476   4.490   4.220   3.651 -0.1362 -0.2722  0.6028
   47G       H8 1477   4.528   4.318   3.628  0.1756 -0.4401  0.3962
   47G       N7 1478   4.364   4.190   3.667 -0.3369  0.3897  0.2928
   47G       C5 1479   4.359   4.054   3.697  0.1099  0.2950 -0.0642
   47G       C6 1480   4.258   3.959   3.725  0.3881  0.0743  0.1956
   47G       O6 1481   4.138   3.978   3.745  0.4845 -0.1129  0.9902
   47G       N1 1482   4.303   3.831   3.753  0.0743 -0.1612 -0.3739
   47G       H1 1483   4.235   3.765   3.789  0.8945 -0.4182  0.7534
   47G       C2 1484   4.437   3.800   3.758  0.1326  0.1121 -0.2519
   47G       N2 1485   4.468   3.678   3.804 -0.1803  0.1310  0.0094
   47G      H21 1486   4.397   3.608   3.821 -0.7250  0.9537  1.3012
   47G      H22 1487   4.565   3.650   3.796 -0.5583 -0.8189 -1.6759
   47G       N3 1488   4.537   3.886   3.732  0.2542  0.0427 -0.0146
   47G       C4 1489   4.489   4.010   3.706 -0.0150 -0.0094  0.2309
   47G      C3' 1490   4.784   4.173   3.436 -0.1384 -0.4749 -0.0194
   47G      H3' 1491   4.693   4.211   3.388 -1.5578 -2.4655  0.9629
   47G      C2' 1492   4.772   4.054   3.530  0.7038 -0.5681 -0.0205
   47G     H2'1 1493   4.690   3.990   3.496 -1.2093  1.8492 -0.2682
   47G      O2' 1494   4.885   3.975   3.559  0.2985 -0.9536  0.5489
   47G     HO'2 1495   4.935   4.007   3.634  0.5331  0.1984 -0.0696
   47G      O3' 1496   4.885   4.149   3.341 -0.2472 -0.1797 -0.2128
   48U        P 1497   4.848   4.095   3.194 -0.2905 -0.3058 -0.1555
   48U      O1P 1498   4.967   4.091   3.106  0.2307  0.1442  0.5252
   48U      O2P 1499   4.738   4.177   3.138 -0.1991  0.1368  0.3120
   48U      O5' 1500   4.788   3.947   3.217 -0.2176 -0.2350  0.4932
   48U      C5' 1501   4.876   3.841   3.248  0.1802  0.1127  0.5729
   48U     H5'1 1502   4.931   3.866   3.339  2.6278 -1.8708 -0.2659
   48U     H5'2 1503   4.937   3.800   3.168 -0.7378 -2.4423  1.0656
   48U      C4' 1504   4.794   3.715   3.279  0.6002 -0.2422  0.2398
   48U      H4' 1505   4.864   3.632   3.279  1.1069  0.0117 -3.2232
   48U      O4' 1506   4.721   3.722   3.399 -0.0913  0.3104 -0.2034
   48U      C1' 1507   4.603   3.646   3.390  0.1847 -0.1780  0.2289
   48U      H1' 1508   4.595   3.578   3.475 -1.0249 -0.5339 -0.1435
   48U       N1 1509   4.479   3.725   3.388  0.3685  0.1045 -0.2929
   48U       C6 1510   4.470   3.857   3.352  0.3977  0.2432  0.1958
   48U       H6 1511   4.554   3.893   3.296 -0.5678  0.5317 -1.1105
   48U       C5 1512   4.353   3.924   3.358  0.2156 -0.0522 -0.0191
   48U       H5 1513   4.348   4.024   3.318 -0.6218 -0.9080 -2.1889
   48U       C4 1514   4.230   3.871   3.412  0.0828  0.2745  0.0028
   48U       O4 1515   4.120   3.922   3.432  0.1874  0.2383  0.7091
   48U       N3 1516   4.246   3.736   3.441  0.4320  0.2795 -0.1654
   48U       H3 1517   4.166   3.691   3.482  0.4047  0.4573 -0.0214
   48U       C2 1518   4.363   3.662   3.430  0.6747  0.4511  1.1401
   48U       O2 1519   4.353   3.543   3.462 -0.2760  0.3261  0.4163
   48U      C3' 1520   4.690   3.671   3.176  0.4193  0.7858 -0.0270
   48U      H3' 1521   4.619   3.750   3.151 -0.7954 -0.3372 -0.2307
   48U      C2' 1522   4.610   3.570   3.258  0.6418  0.5100 -0.1511
   48U     H2'1 1523   4.508   3.554   3.222  1.1246  0.1923 -1.4515
   48U      O2' 1524   4.677   3.449   3.283 -0.2066  0.1543  0.4612
   48U     HO'2 1525   4.610   3.389   3.318  0.2814 -1.1919 -0.7919
   48U      O3' 1526   4.744   3.609   3.062 -0.2160 -0.0555  0.1256
   49C        P 1527   4.659   3.607   2.925  0.1215 -0.0963 -0.0842
   49C      O1P 1528   4.757   3.538   2.839  0.3393  0.1937 -0.0720
   49C      O2P 1529   4.615   3.746   2.901 -0.2589 -0.1738  0.1561
   49C      O5' 1530   4.535   3.507   2.950 -0.0152  0.0554 -0.1576
   49C      C5' 1531   4.565   3.370   2.963  0.0354  0.1212  0.4352
   49C     H5'1 1532   4.647   3.356   3.033  0.9148  0.2046 -0.5610
   49C     H5'2 1533   4.598   3.320   2.872 -0.3772 -1.4157  1.0999
   49C      C4' 1534   4.434   3.305   3.006  0.0159 -0.3565 -0.3271
   49C      H4' 1535   4.447   3.199   3.027 -3.3604 -0.7612  0.3054
   49C      O4' 1536   4.382   3.351   3.129  0.4381 -0.0972 -0.2446
   49C      C1' 1537   4.241   3.348   3.132  0.4311  0.0262 -0.4401
   49C      H1' 1538   4.208   3.291   3.219 -0.5147  1.8931  0.4796
   49C       N1 1539   4.181   3.482   3.145  0.4346 -0.0409  0.2770
   49C       C6 1540   4.247   3.595   3.106  0.5408 -0.1198  0.2276
   49C       H6 1541   4.347   3.584   3.067  0.1170  0.3452 -1.0354
   49C       C5 1542   4.192   3.718   3.108  0.4035 -0.1881  0.8088
   49C       H5 1543   4.243   3.810   3.084  1.7393 -0.7111  1.5421
   49C       C4 1544   4.060   3.724   3.163  0.1493 -0.2956  0.2171
   49C       N4 1545   4.001   3.844   3.178  0.3290 -0.1050 -0.5444
   49C      H41 1546   4.038   3.928   3.137 -1.3086  0.4764 -0.9244
   49C      H42 1547   3.903   3.841   3.203 -0.2738 -0.6583 -2.7952
   49C       N3 1548   3.989   3.615   3.196  0.2196 -0.2174  0.6308
   49C       C2 1549   4.049   3.494   3.186  0.5461 -0.0596  0.6521
   49C       O2 1550   3.985   3.397   3.225  0.1711 -0.1146 -0.0789
   49C      C3' 1551   4.318   3.309   2.907  0.0331 -0.0809 -0.3355
   49C      H3' 1552   4.309   3.412   2.870  0.2416 -0.1209 -0.5045
   49C      C2' 1553   4.203   3.278   3.001  0.0580 -0.0461 -0.2930
   49C     H2'1 1554   4.107   3.316   2.965 -1.4426 -2.2751  1.0404
   49C      O2' 1555   4.197   3.137   3.014  0.2979 -0.0757 -0.5186
   49C     HO'2 1556   4.250   3.092   2.948 -0.3530 -3.4253  1.0497
   49C      O3' 1557   4.336   3.220   2.799  0.3215 -0.5702  0.1141
   50G        P 1558   4.260   3.250   2.660 -0.2102 -0.0808  0.5043
   50G      O1P 1559   4.293   3.146   2.561 -0.5040  0.3229 -0.0204
   50G      O2P 1560   4.293   3.391   2.626 -0.1285 -0.2336 -0.0561
   50G      O5' 1561   4.106   3.244   2.705 -0.3252 -0.5535  0.0471
   50G      C5' 1562   4.035   3.122   2.712 -0.2229 -0.6099  0.0900
   50G     H5'1 1563   4.092   3.054   2.775 -0.8937 -1.4143 -0.1658
   50G     H5'2 1564   4.033   3.072   2.615  1.0356 -0.5725  0.0232
   50G      C4' 1565   3.893   3.143   2.763 -0.1055 -0.5654  0.4005
   50G      H4' 1566   3.859   3.044   2.792  0.8545 -0.6028  1.4924
   50G      O4' 1567   3.888   3.211   2.887 -0.5101  0.5093 -0.1895
   50G      C1' 1568   3.772   3.290   2.897 -0.3895  0.6989 -0.2967
   50G      H1' 1569   3.719   3.268   2.989  0.4105  1.2836  0.3192
   50G       N9 1570   3.798   3.436   2.895 -0.0099  0.6376  0.0351
   50G       C8 1571   3.913   3.498   2.854  0.1936  0.1817 -0.0992
   50G       H8 1572   3.994   3.451   2.801 -0.3588 -0.5394 -0.3233
   50G       N7 1573   3.897   3.628   2.863 -0.2042  0.1369 -0.1278
   50G       C5 1574   3.771   3.647   2.917 -0.4939 -0.0429 -0.7303
   50G       C6 1575   3.699   3.767   2.943  0.1530  0.1723  0.1183
   50G       O6 1576   3.734   3.883   2.923  0.5844  0.0020 -0.1367
   50G       N1 1577   3.572   3.746   2.995  0.2542 -0.0418  0.2779
   50G       H1 1578   3.524   3.833   3.011 -0.8841 -0.7204  0.6311
   50G       C2 1579   3.514   3.621   3.008 -0.3286  0.1354 -0.5967
   50G       N2 1580   3.387   3.613   3.052  0.0294 -0.2666  0.3755
   50G      H21 1581   3.328   3.694   3.039  0.1704  0.2589  2.6522
   50G      H22 1582   3.354   3.518   3.058  2.4479 -1.2173 -0.1864
   50G       N3 1583   3.576   3.509   2.973 -0.3575 -0.2445  0.5390
   50G       C4 1584   3.702   3.529   2.927 -0.5529  0.0551  0.1306
   50G      C3' 1585   3.792   3.212   2.673  0.0385 -0.1293  0.5698
   50G      H3' 1586   3.835   3.304   2.632 -0.0932 -0.7910 -1.1332
   50G      C2' 1587   3.687   3.240   2.780 -0.4745  0.0885  0.0232
   50G     H2'1 1588   3.613   3.315   2.750 -0.5297  0.3530  0.7895
   50G      O2' 1589   3.611   3.130   2.823 -0.4859 -0.0449 -0.3399
   50G     HO'2 1590   3.603   3.069   2.749  1.2910  1.4958 -1.8840
   50G      O3' 1591   3.733   3.136   2.569  0.4412  0.4959 -0.1282
   50G      H3T 1592   3.669   3.190   2.522 -0.3599  0.9827  1.4381
   51SOL     OW 1593   0.619   0.131  12.454  0.1556 -0.4948  0.0574
   51SOL    HW1 1594   0.593   0.204  12.512 -1.9218  0.6507 -2.1554
   51SOL    HW2 1595   0.710   0.150  12.433  0.0696  0.7083  0.6463
   52SOL     OW 1596   0.336   1.999   0.857 -0.4810  0.2169  0.7069
   52SOL    HW1 1597   0.266   1.935   0.847 -0.8937  0.7620  0.0145
   52SOL    HW2 1598   0.389   1.965   0.929 -0.2213 -1.3228 -0.1641
   53SOL     OW 1599   7.220   0.883   1.707  0.3893 -0.5881  0.6241
   53SOL    HW1 1600   7.185   0.966   1.739  1.1132 -1.1863  3.3022
   53SOL    HW2 1601   7.185   0.874   1.619 -1.4807  1.5060  1.0499
   54SOL     OW 1602   0.937   1.300   0.920 -0.2960 -0.6981  0.0032
   54SOL    HW1 1603   0.905   1.377   0.872  2.3771  0.3270 -0.3321
   54SOL    HW2 1604   0.939   1.327   1.011 -1.6478 -1.2655  0.2206
   55SOL     OW 1605   0.454   0.770   0.258 -0.0539  0.2349  0.1317
   55SOL    HW1 1606   0.406   0.791   0.339  0.2050 -1.0994  0.6525
   55SOL    HW2 1607   0.526   0.833   0.256  0.2576 -0.0611  1.2479
   56SOL     OW 1608   0.276   1.203   2.607  0.1189  0.2148 -0.5444
   56SOL    HW1 1609   0.264   1.109   2.621 -0.4464  0.2311 -0.8675
   56SOL    HW2 1610   0.193   1.242   2.634 -0.4567  0.3880 -2.3903
   57SOL     OW 1611   0.635   7.856   1.558  0.4464 -0.0210  0.0068
   57SOL    HW1 1612   0.643   7.886   1.468  1.8462  0.9004  0.4093
   57SOL    HW2 1613   0.552   7.894   1.588  1.4774  2.3817  0.0534
   58SOL     OW 1614   7.726   6.224   1.306 -0.4440  0.5461  0.0987
   58SOL    HW1 1615   7.631   6.236   1.303 -0.3512  1.1610 -0.6668
   58SOL    HW2 1616   7.751   6.251   1.394 -0.8571  1.3609 -0.0273
   59SOL     OW 1617   7.480   0.314   1.765  0.1016 -1.1002  0.6030
   59SOL    HW1 1618   7.395   0.358   1.769  0.3186 -0.5203 -0.7319
   59SOL    HW2 1619   7.531   0.354   1.836  0.4022  1.1042 -0.7560
   60SOL     OW 1620   7.805   1.452  12.442  0.1251  0.5074 -0.4045
   60SOL    HW1 1621   7.785   1.369  12.400  3.5205 -0.4618 -0.3788
   60SOL    HW2 1622   7.815   1.430  12.535 -0.1061  1.2097 -0.2023
   61SOL     OW 1623   2.666   2.538  11.549  0.0029 -0.3368  0.5008
   61SOL    HW1 1624   2.609   2.467  11.521  0.2546 -1.0300  1.6511
   61SOL    HW2 1625   2.738   2.537  11.486 -1.6458  1.1686 -1.5405
   62SOL     OW 1626   1.788   6.429  12.328 -0.1761  0.7301  0.3594
   62SOL    HW1 1627   1.700   6.402  12.354 -0.4876  0.2738 -1.0671
   62SOL    HW2 1628   1.825   6.351  12.285  0.2083  1.4931 -0.7271
   63SOL     OW 1629   7.934   7.313   2.454  0.2991 -0.3410  0.5183
   63SOL    HW1 1630   8.006   7.295   2.514 -0.5700 -0.6461  1.5000
   63SOL    HW2 1631   7.940   7.244   2.388  0.3402 -0.9319  1.1268
   64SOL     OW 1632   0.844   1.042  11.376 -0.4511 -0.1320 -1.0540
   64SOL    HW1 1633   0.813   1.132  11.385  1.1336  0.3587 -0.1147
   64SOL    HW2 1634   0.855   1.011  11.466 -0.3065 -1.0333 -1.3671
   65SOL     OW 1635   1.256   0.198   0.759 -0.3685  0.1623  0.0884
   65SOL    HW1 1636   1.298   0.116   0.732  1.2004  0.2262  2.1105
   65SOL    HW2 1637   1.178   0.170   0.806 -1.2591 -0.0372 -1.4299
   66SOL     OW 1638   0.499   1.482   0.245 -0.6560 -0.8368  0.5566
   66SOL    HW1 1639   0.506   1.544   0.317  0.8974  1.4174 -1.3757
   66SOL    HW2 1640   0.422   1.511   0.196 -0.0788 -0.5635 -0.2105
   67SOL     OW 1641   7.977   6.709   0.915  0.2547  0.3072  0.0071
   67SOL    HW1 1642   7.932   6.730   0.833  0.3150 -1.5072 -0.5516
   67SOL    HW2 1643   7.909   6.669   0.970  1.0720 -2.6960 -0.9386
   68SOL     OW 1644   1.408   3.155  12.219 -0.3164  0.0246  0.2294
   68SOL    HW1 1645   1.354   3.140  12.142  0.4280  3.2454 -1.1181
   68SOL    HW2 1646   1.496   3.125  12.194 -0.2779  0.1832  0.1707
   69SOL     OW 1647   0.589   7.253   0.042  0.8946 -0.7104 -0.3571
   69SOL    HW1 1648   0.670   7.204   0.055  3.0465  2.7886  0.8366
   69SOL    HW2 1649   0.542   7.245   0.125  0.9699 -1.1231 -0.3523
   70SOL     OW 1650   2.308   7.391   1.206 -0.3180 -0.0818 -0.1597
   70SOL    HW1 1651   2.386   7.401   1.261 -1.0706  0.6939  0.8128
   70SOL    HW2 1652   2.342   7.383   1.117  0.9075 -0.7254  0.3370
   71SOL     OW 1653   7.948   0.302   0.842 -0.3337  0.6837  0.2756
   71SOL    HW1 1654   7.905   0.260   0.768  1.2230  0.2715 -0.4365
   71SOL    HW2 1655   7.876   0.337   0.895 -1.5436 -0.4301 -0.5727
   72SOL     OW 1656   1.298   2.924   1.020  0.2802 -0.1879  0.5542
   72SOL    HW1 1657   1.228   2.963   0.968  0.6171  1.3697  1.1983
   72SOL    HW2 1658   1.321   2.992   1.083  0.4253 -1.7299  2.2354
   73SOL     OW 1659   0.691   1.828  11.703 -0.1219  0.6445  0.1365
   73SOL    HW1 1660   0.773   1.844  11.749  0.4220 -1.9073  0.2081
   73SOL    HW2 1661   0.672   1.911  11.658  2.5378  1.2887  0.0232
   74SOL     OW 1662   1.427   0.867   0.308  0.2896 -0.3752  0.1608
   74SOL    HW1 1663   1.507   0.916   0.327 -0.8870  1.8323 -0.2447
   74SOL    HW2 1664   1.432   0.849   0.214 -0.2123  0.8522 -0.1225
   75SOL     OW 1665   1.201   1.539   0.624 -0.3685  0.3320  0.2081
   75SOL    HW1 1666   1.248   1.544   0.708 -0.4112 -0.3832  0.2770
   75SOL    HW2 1667   1.257   1.484   0.569 -1.9554 -2.1002  0.8689
   76SOL     OW 1668   0.982   1.986   3.146 -0.0580 -0.4097 -0.0695
   76SOL    HW1 1669   0.968   1.987   3.240  2.1251  0.8843  0.2979
   76SOL    HW2 1670   0.898   2.014   3.109 -0.6536 -0.0080  1.5173
   77SOL     OW 1671   7.774   2.780   2.277 -0.0106  0.1648 -0.1363
   77SOL    HW1 1672   7.791   2.785   2.371  1.2766 -0.3098 -0.3195
   77SOL    HW2 1673   7.856   2.746   2.240 -1.4655 -2.6469 -1.0676
   78SOL     OW 1674   6.918   0.689   1.996 -0.5160 -0.3575  0.1460
   78SOL    HW1 1675   6.929   0.653   1.908 -2.3642  0.7078 -0.5811
   78SOL    HW2 1676   6.898   0.613   2.051  0.3590 -0.9928 -0.3814
   79SOL     OW 1677   0.555   0.296   2.059 -0.2928  0.2073 -0.0999
   79SOL    HW1 1678   0.558   0.237   1.984  0.2890 -0.4595  0.4274
   79SOL    HW2 1679   0.540   0.239   2.134  0.7867  0.6524  0.4864
   80SOL     OW 1680   0.320   0.351   0.158  0.1111  0.1777 -0.4407
   80SOL    HW1 1681   0.360   0.404   0.089  1.3944 -0.7114 -0.4191
   80SOL    HW2 1682   0.237   0.394   0.175  0.6449  1.5794 -1.1378
   81SOL     OW 1683   0.831   0.812   0.444  0.1733 -0.1951  0.2876
   81SOL    HW1 1684   0.901   0.877   0.436  0.8281 -0.6779  1.6925
   81SOL    HW2 1685   0.777   0.843   0.517  0.1520 -0.8913  0.5844
   82SOL     OW 1686   0.769   3.026   1.770  0.4117 -0.0816  0.1753
   82SOL    HW1 1687   0.831   3.061   1.833 -0.9499  0.0874  1.4578
   82SOL    HW2 1688   0.757   2.934   1.796  0.9581 -0.4413 -0.7655
   83SOL     OW 1689   7.173   1.662   2.694 -0.4636 -0.2649  0.6660
   83SOL    HW1 1690   7.243   1.661   2.760 -1.9013 -2.3300  2.2518
   83SOL    HW2 1691   7.097   1.698   2.740 -0.8434  0.7666 -0.6856
   84SOL     OW 1692   1.661   3.096   0.605  0.0257  0.0190 -0.2619
   84SOL    HW1 1693   1.639   3.029   0.541  1.1030 -0.7418  0.1216
   84SOL    HW2 1694   1.707   3.048   0.674  1.0962  1.1952 -0.1212
   85SOL     OW 1695   1.100   0.994   0.760  0.4252 -0.1369  0.0636
   85SOL    HW1 1696   1.127   1.080   0.728  0.1991  0.5149  1.5681
   85SOL    HW2 1697   1.005   1.001   0.771  0.4459 -0.4931  0.4652
   86SOL     OW 1698   1.654   1.033   0.314  0.4297 -0.6434 -0.4445
   86SOL    HW1 1699   1.701   1.092   0.372 -1.1985 -1.8091  2.2392
   86SOL    HW2 1700   1.722   0.983   0.269  1.7660 -0.1106  0.9262
   87SOL     OW 1701   7.987   0.255  12.280 -0.3439  0.9275 -0.4987
   87SOL    HW1 1702   8.003   0.245  12.374 -1.4846 -1.0949 -0.4629
   87SOL    HW2 1703   8.035   0.334  12.256  1.7688  0.3246  1.3517
   88SOL     OW 1704   1.605   1.421   1.089  0.7970 -0.0513 -0.4071
   88SOL    HW1 1705   1.672   1.381   1.034  0.8324 -0.2245 -0.2381
   88SOL    HW2 1706   1.615   1.379   1.175  0.7634  0.2413 -0.2578
   89SOL     OW 1707   0.947   7.257   3.043  0.2059 -0.1852  0.0914
   89SOL    HW1 1708   0.967   7.348   3.065  1.6566  0.3490 -2.9565
   89SOL    HW2 1709   0.858   7.260   3.009  0.3243  0.1208 -0.1946
   90SOL     OW 1710   0.083   6.379   3.652 -0.2893 -0.2427  0.0773
   90SOL    HW1 1711   0.106   6.394   3.744 -1.6519  0.7204  0.2944
   90SOL    HW2 1712  -0.004   6.416   3.643 -0.3878 -0.7883 -1.4970
   91SOL     OW 1713   0.914   0.840   1.369  0.1092  0.0428 -0.1411
   91SOL    HW1 1714   0.877   0.915   1.414 -0.1475 -0.1388 -0.0469
   91SOL    HW2 1715   0.855   0.767   1.390  0.5414 -0.2594  0.0436
   92SOL     OW 1716   1.675   0.780   0.702 -0.1745  0.8410  0.5100
   92SOL    HW1 1717   1.667   0.685   0.695 -1.3855  0.9440  0.2619
   92SOL    HW2 1718   1.592   0.814   0.668  0.2429  1.9907  0.5771
   93SOL     OW 1719   0.028   0.737   0.643  0.3576 -0.4396 -0.3303
   93SOL    HW1 1720   0.020   0.641   0.639  1.1491 -0.5002 -0.6623
   93SOL    HW2 1721   0.001   0.767   0.557  2.0073 -0.5346 -0.9305
   94SOL     OW 1722   0.094   1.320   1.706  0.4263 -0.0020  0.2626
   94SOL    HW1 1723   0.108   1.380   1.780 -0.0785  0.2636  0.1496
   94SOL    HW2 1724   0.039   1.251   1.742 -0.4176  0.4980 -0.0349
   95SOL     OW 1725   6.989   1.253   1.716  0.4097  0.2423  0.3433
   95SOL    HW1 1726   7.023   1.322   1.772  0.9738  0.7960 -0.6403
   95SOL    HW2 1727   6.895   1.272   1.709  0.4650  0.5893  0.5220
   96SOL     OW 1728   0.392   7.957   0.450  0.3526 -0.2118  0.0347
   96SOL    HW1 1729   0.392   8.027   0.384 -0.9785  1.6749  1.9116
   96SOL    HW2 1730   0.303   7.959   0.486  1.1031 -1.0151  2.0432
   97SOL     OW 1731   2.688   1.954   2.841 -0.2180 -0.0896 -0.3528
   97SOL    HW1 1732   2.780   1.928   2.851 -0.1885 -0.3027 -1.1127
   97SOL    HW2 1733   2.692   2.046   2.816 -0.2425  0.0837  0.2624
   98SOL     OW 1734   0.109   2.893  12.111  0.1254 -0.0574 -0.2565
   98SOL    HW1 1735   0.053   2.816  12.119  0.6565 -0.5221 -0.9930
   98SOL    HW2 1736   0.115   2.910  12.017  0.3572  0.6324 -0.1288
   99SOL     OW 1737   7.471   0.334   2.331 -0.4628  0.0882 -0.3530
   99SOL    HW1 1738   7.542   0.273   2.310 -1.8211 -1.8291  0.3334
   99SOL    HW2 1739   7.501   0.418   2.299  1.2687 -1.0477 -1.8701
  100SOL     OW 1740   1.444   0.017   0.605 -0.7524  0.1500 -0.2174
  100SOL    HW1 1741   1.415  -0.072   0.587 -0.5374  0.1971 -0.8100
  100SOL    HW2 1742   1.540   0.011   0.611 -0.6934  0.4251 -0.7860
  101SOL     OW 1743   0.964   1.779  12.420 -0.3400 -0.3014 -0.2728
  101SOL    HW1 1744   0.910   1.701  12.408  0.9497 -0.9627 -2.3005
  101SOL    HW2 1745   1.017   1.760  12.497 -2.1724 -0.0829  1.0991
  102SOL     OW 1746   2.124   2.589  12.429 -0.0051  0.1337  0.3111
  102SOL    HW1 1747   2.072   2.662  12.396 -0.2300 -0.7226 -1.3710
  102SOL    HW2 1748   2.174   2.625  12.502 -2.4429  1.1525  1.5858
  103SOL     OW 1749   2.450   3.201   0.927 -0.1860 -0.0426 -0.2522
  103SOL    HW1 1750   2.443   3.106   0.940  0.9419 -0.1023  0.0412
  103SOL    HW2 1751   2.371   3.237   0.966 -0.0942 -0.7838  0.6337
  104SOL     OW 1752   0.259   6.859   0.788 -0.5882 -0.6454 -0.1984
  104SOL    HW1 1753   0.169   6.827   0.776 -1.0445  1.0193 -1.5894
  104SOL    HW2 1754   0.260   6.897   0.875 -1.3588 -0.3477 -0.3112
  105SOL     OW 1755   2.898   0.794  12.355  0.3754 -0.0803 -0.0697
  105SOL    HW1 1756   2.831   0.836  12.408  1.2592 -0.3036  1.2801
  105SOL    HW2 1757   2.858   0.711  12.328 -1.2978  1.4351 -2.5811
  106SOL     OW 1758   1.846   0.886   1.964 -0.2316 -0.3645  0.4936
  106SOL    HW1 1759   1.835   0.803   1.918  0.0726 -1.3958  2.1788
  106SOL    HW2 1760   1.929   0.876   2.012  0.1050  1.1475  0.2950
  107SOL     OW 1761   1.145   6.319   1.040 -0.0821 -0.0951  0.0406
  107SOL    HW1 1762   1.131   6.403   1.082  0.9827  0.9537 -1.5955
  107SOL    HW2 1763   1.199   6.270   1.102 -0.1677  0.6573  0.7307
  108SOL     OW 1764   0.919   1.116   1.460  0.8485 -0.1499 -0.5657
  108SOL    HW1 1765   0.987   1.168   1.416  1.8884 -0.8279  0.1902
  108SOL    HW2 1766   0.852   1.103   1.393  2.5433 -1.4281 -2.1184
  109SOL     OW 1767   0.241   1.054   0.083 -0.5375  0.0993  0.4118
  109SOL    HW1 1768   0.299   1.019   0.015  0.0532 -1.3046  1.5891
  109SOL    HW2 1769   0.164   1.085   0.035  0.0800 -0.3853 -0.9469
  110SOL     OW 1770   1.961   0.059   1.816  0.3656 -0.1422 -0.2427
  110SOL    HW1 1771   2.036   0.052   1.876 -0.4258  1.2484  0.9872
  110SOL    HW2 1772   1.948  -0.030   1.784  0.9825 -0.9117  1.4777
  111SOL     OW 1773   0.750   2.629   0.477  0.0295  0.4105  0.2094
  111SOL    HW1 1774   0.755   2.628   0.381  1.1643 -0.4918  0.2510
  111SOL    HW2 1775   0.753   2.722   0.499  0.3029  0.6157 -0.6264
  112SOL     OW 1776   7.432   1.330  12.302 -1.0973  0.0190  0.0307
  112SOL    HW1 1777   7.401   1.316  12.213  1.3622  0.7187 -1.0205
  112SOL    HW2 1778   7.399   1.255  12.351  0.1901 -2.1992 -2.2512
  113SOL     OW 1779   7.812   0.922   3.100 -0.1911  0.0590  0.2753
  113SOL    HW1 1780   7.845   0.995   3.152 -0.6654  1.2788 -1.0589
  113SOL    HW2 1781   7.724   0.950   3.074 -1.3089 -1.9818  1.6007
  114SOL     OW 1782   2.722   0.580   3.176  0.2651 -0.2183 -0.1465
  114SOL    HW1 1783   2.709   0.628   3.094 -1.0058  1.0558  0.7578
  114SOL    HW2 1784   2.653   0.514   3.177  1.0852 -1.1227 -0.6747
  115SOL     OW 1785   1.150   7.400   0.176  0.0498  0.0370  0.3748
  115SOL    HW1 1786   1.184   7.337   0.240 -1.1939  0.4420  1.4689
  115SOL    HW2 1787   1.106   7.345   0.110  1.6177 -0.4008 -0.3566
  116SOL     OW 1788   1.473   0.617   1.680  0.2260  0.8504 -0.5395
  116SOL    HW1 1789   1.438   0.643   1.595  0.4701 -0.9665 -1.2468
  116SOL    HW2 1790   1.414   0.658   1.743 -0.6105  1.3503 -1.5968
  117SOL     OW 1791   7.404   7.662   1.637 -0.1560 -0.1863  0.6879
  117SOL    HW1 1792   7.415   7.639   1.730  0.1709 -0.5936  0.5545
  117SOL    HW2 1793   7.483   7.712   1.615  0.5398 -1.4177  0.2401
  118SOL     OW 1794   0.058   1.515   1.989  0.2899  0.7105 -0.1209
  118SOL    HW1 1795   0.151   1.523   2.009 -0.0057  1.2552  1.1936
  118SOL    HW2 1796   0.016   1.582   2.044 -0.9645 -0.2115  0.0934
  119SOL     OW 1797   0.373   0.131   1.022 -0.5411  0.0439  0.2592
  119SOL    HW1 1798   0.321   0.117   0.942 -1.7578 -0.4807  1.1032
  119SOL    HW2 1799   0.367   0.224   1.039 -0.8776  0.0466  0.1314
  120SOL     OW 1800   2.424   1.205   0.146  0.6418 -0.1064 -0.1223
  120SOL    HW1 1801   2.371   1.151   0.087  0.1567  1.2473 -0.9875
  120SOL    HW2 1802   2.470   1.142   0.201  0.1176 -1.3938 -1.0873
  121SOL     OW 1803   1.124   6.618   0.793  0.0349 -0.2316 -0.3263
  121SOL    HW1 1804   1.032   6.618   0.820  0.0484 -0.9558 -0.2655
  121SOL    HW2 1805   1.155   6.706   0.812 -0.4704 -0.1776  0.2518
  122SOL     OW 1806   0.393   0.605   0.039 -0.1479  0.2245 -0.1673
  122SOL    HW1 1807   0.312   0.647   0.011 -0.2057 -0.1658 -0.5945
  122SOL    HW2 1808   0.427   0.663   0.107  0.4114  1.6660 -1.5905
  123SOL     OW 1809   0.765   7.265   1.093  0.1295  0.7688 -0.1226
  123SOL    HW1 1810   0.838   7.317   1.127  0.6155 -0.5211  0.9044
  123SOL    HW2 1811   0.703   7.261   1.166  0.8135 -1.3581  0.4031
  124SOL     OW 1812   1.067   6.079   0.703  0.2702 -0.0356 -0.2209
  124SOL    HW1 1813   1.051   6.117   0.616  1.4591  2.0810  0.4230
  124SOL    HW2 1814   0.989   6.100   0.753  0.1943  0.0113 -0.3577
  125SOL     OW 1815   7.978   7.254   0.504 -0.0031  0.5747  0.3350
  125SOL    HW1 1816   7.959   7.235   0.412 -0.4336 -0.9288  0.7065
  125SOL    HW2 1817   8.012   7.171   0.539  1.6547  1.5507  1.1569
  126SOL     OW 1818   7.587   7.146   2.018  0.0552  0.0939  0.4966
  126SOL    HW1 1819   7.498   7.175   1.996  0.1751 -0.0961 -0.2646
  126SOL    HW2 1820   7.574   7.071   2.076 -0.2739  0.4557  0.8937
  127SOL     OW 1821   7.190   1.756   2.343 -0.4638 -0.0472  0.1581
  127SOL    HW1 1822   7.187   1.675   2.292  0.1942  0.4420 -0.6924
  127SOL    HW2 1823   7.137   1.738   2.420 -2.0638 -0.5955 -1.0051
  128SOL     OW 1824   0.073   0.570   1.481 -0.5888  0.5137  0.0393
  128SOL    HW1 1825   0.091   0.486   1.438  1.2467 -0.2528  2.1294
  128SOL    HW2 1826   0.156   0.594   1.521 -0.7732  3.8992 -1.3116
  129SOL     OW 1827   1.172   0.769   0.339  0.1998 -0.1390  0.2157
  129SOL    HW1 1828   1.129   0.739   0.258  0.1063 -0.0139  0.2177
  129SOL    HW2 1829   1.260   0.794   0.312 -0.2305  1.0908 -0.0868
  130SOL     OW 1830   7.839   7.852   2.121  0.2293 -0.7799 -0.3935
  130SOL    HW1 1831   7.809   7.769   2.156  1.4771 -0.5722  1.2917
  130SOL    HW2 1832   7.900   7.886   2.187  1.2136  0.5733 -1.9111
  131SOL     OW 1833   6.406   2.112   1.356  0.1493 -0.0341 -0.1276
  131SOL    HW1 1834   6.397   2.194   1.307 -0.6272 -0.0387 -0.0134
  131SOL    HW2 1835   6.321   2.070   1.346 -0.2032  0.2036  1.6372
  132SOL     OW 1836   7.769   7.792   2.486  0.1815  0.0550  0.1420
  132SOL    HW1 1837   7.847   7.847   2.490  0.1089  0.2135 -0.5688
  132SOL    HW2 1838   7.714   7.834   2.420 -0.3884 -0.2085  0.4463
  133SOL     OW 1839   1.091   7.242  11.943 -0.0456 -0.1835  0.1191
  133SOL    HW1 1840   1.079   7.173  12.009 -1.2110  0.7262  0.9028
  133SOL    HW2 1841   1.093   7.195  11.860 -0.6727 -1.1877  0.6467
  134SOL     OW 1842   0.095   0.520   0.230 -0.1907  0.1169 -0.2230
  134SOL    HW1 1843   0.013   0.477   0.204 -0.4532  0.5064 -0.0544
  134SOL    HW2 1844   0.103   0.595   0.169  0.0138  0.1087 -0.2067
  135SOL     OW 1845   1.425   7.337   1.574 -0.2480  0.8235 -0.1914
  135SOL    HW1 1846   1.441   7.429   1.555 -0.9394  0.9379 -0.2632
  135SOL    HW2 1847   1.460   7.324   1.663 -2.7205  1.9032  1.0376
  136SOL     OW 1848   3.431   0.600   0.654  0.1916  0.0587  0.0853
  136SOL    HW1 1849   3.457   0.691   0.672  2.1003 -0.2723 -0.7798
  136SOL    HW2 1850   3.492   0.547   0.704 -1.2361 -0.8025  0.9915
  137SOL     OW 1851   0.810   3.425  12.088  0.3657  0.4781 -0.4069
  137SOL    HW1 1852   0.872   3.352  12.095 -0.7423 -0.3721  1.4031
  137SOL    HW2 1853   0.772   3.432  12.176 -1.5183  1.4654 -1.2427
  138SOL     OW 1854   0.490   7.841   0.786 -0.4508  0.6153  0.0826
  138SOL    HW1 1855   0.573   7.801   0.760  0.2358  1.7002  0.5114
  138SOL    HW2 1856   0.510   7.935   0.794 -2.3342  1.3139 -2.3074
  139SOL     OW 1857   0.367   6.853  12.180 -0.0167 -0.3855  0.1558
  139SOL    HW1 1858   0.381   6.938  12.222 -2.2442 -0.0229  0.3159
  139SOL    HW2 1859   0.426   6.852  12.105  0.1978  1.2206  0.2738
  140SOL     OW 1860   0.878   0.397   2.419  0.2681 -0.2973  0.0776
  140SOL    HW1 1861   0.845   0.470   2.471  0.8123 -0.6813  0.9763
  140SOL    HW2 1862   0.814   0.327   2.430 -0.5614  0.2195 -1.2616
  141SOL     OW 1863   1.279   7.814   1.048 -0.4550  0.6421 -0.1795
  141SOL    HW1 1864   1.199   7.823   0.995 -0.2074  2.0810 -0.3339
  141SOL    HW2 1865   1.338   7.763   0.993 -1.6370 -1.4803  0.3936
  142SOL     OW 1866   0.026   3.774   1.061 -0.5016  0.2449 -0.4946
  142SOL    HW1 1867  -0.058   3.798   1.021 -0.6071  0.2976 -0.2488
  142SOL    HW2 1868   0.087   3.766   0.988 -0.6469  0.5202 -0.6468
  143SOL     OW 1869   7.248   0.026   1.397  0.0939  0.0886  0.3369
  143SOL    HW1 1870   7.308   0.090   1.436 -0.5262  0.1365  1.2562
  143SOL    HW2 1871   7.185   0.006   1.467  1.5547 -3.2319  0.9150
  144SOL     OW 1872   0.735   0.360   1.710  0.5047  0.0876 -0.1801
  144SOL    HW1 1873   0.790   0.435   1.689 -0.8466  1.3905  0.7486
  144SOL    HW2 1874   0.682   0.347   1.632 -0.2284  1.0066  0.1528
  145SOL     OW 1875   1.753   0.691   1.649 -0.5685 -0.0250  0.0480
  145SOL    HW1 1876   1.821   0.630   1.680 -0.5024  0.5039  0.9756
  145SOL    HW2 1877   1.671   0.647   1.671 -0.5404 -0.4525 -0.6536
  146SOL     OW 1878   0.490   0.777   2.280  0.4267 -0.1667  0.7396
  146SOL    HW1 1879   0.576   0.778   2.237 -0.2117  0.7900 -0.6042
  146SOL    HW2 1880   0.507   0.807   2.369  1.5972 -0.8118  0.7546
  147SOL     OW 1881   7.479   2.577   3.536  0.2143  0.3122 -0.1805
  147SOL    HW1 1882   7.433   2.578   3.452 -0.5073 -0.6689  0.1668
  147SOL    HW2 1883   7.554   2.520   3.521  0.1487  0.2300 -0.2044
  148SOL     OW 1884   1.082   0.480  12.355 -0.0540  0.5143  0.5726
  148SOL    HW1 1885   0.986   0.483  12.362 -0.0087  2.3384  0.7325
  148SOL    HW2 1886   1.099   0.461  12.263 -0.5758  0.7955  0.4159
  149SOL     OW 1887   6.908   2.900   1.226 -0.4928  0.3574  0.0945
  149SOL    HW1 1888   6.827   2.950   1.237 -0.3722  0.6135 -0.1477
  149SOL    HW2 1889   6.949   2.900   1.312 -0.6216  0.4583  0.1558
  150SOL     OW 1890   1.464   1.263   1.698 -0.5398 -0.2665  0.4725
  150SOL    HW1 1891   1.556   1.241   1.683 -0.6416 -1.0958  0.9912
  150SOL    HW2 1892   1.463   1.315   1.778 -0.7040 -2.1289  1.7567
  151SOL     OW 1893   7.588   1.545   2.501  0.2494 -0.2363  0.5716
  151SOL    HW1 1894   7.551   1.614   2.556  1.8722  1.0456  0.1464
  151SOL    HW2 1895   7.569   1.573   2.411  0.1205 -0.8242  0.4094
  152SOL     OW 1896   0.804   0.516  11.419 -0.2624 -0.0234  0.1896
  152SOL    HW1 1897   0.801   0.574  11.495 -1.1226  0.0515  0.1178
  152SOL    HW2 1898   0.722   0.466  11.424  0.1773 -0.7968 -0.0884
  153SOL     OW 1899   0.995   7.984   1.290 -0.4562  0.1260  0.4315
  153SOL    HW1 1900   1.001   7.962   1.383 -2.1546  0.5098  0.6768
  153SOL    HW2 1901   0.958   8.073   1.289  1.7234  1.0950 -0.6012
  154SOL     OW 1902   0.333   1.567   0.052  0.9334  0.0620 -0.2996
  154SOL    HW1 1903   0.392   1.520  -0.007 -0.3606 -0.1205 -1.4957
  154SOL    HW2 1904   0.249   1.520   0.045  0.8349 -0.2381  2.0377
  155SOL     OW 1905   0.372   0.026  12.367  0.5446 -0.0724  0.1061
  155SOL    HW1 1906   0.451   0.049  12.414  0.4486  0.7209 -0.1079
  155SOL    HW2 1907   0.335   0.110  12.338 -0.6719 -0.3774  0.6855
  156SOL     OW 1908   0.651   7.999   0.588  0.3080 -0.2785 -0.2216
  156SOL    HW1 1909   0.635   8.071   0.649 -0.8315 -1.5533  1.1060
  156SOL    HW2 1910   0.569   7.992   0.538 -0.6463 -2.1671  1.4340
  157SOL     OW 1911   0.628   1.653   1.772  0.3096  0.2860 -0.3984
  157SOL    HW1 1912   0.566   1.684   1.837 -0.3838 -2.1114  0.1700
  157SOL    HW2 1913   0.652   1.565   1.801 -0.0980 -0.9437 -3.4009
  158SOL     OW 1914   7.529   0.742   2.379  0.1275 -0.4452  0.1187
  158SOL    HW1 1915   7.605   0.781   2.420 -0.8987  0.5257  1.1734
  158SOL    HW2 1916   7.504   0.670   2.437 -0.1333 -0.3448  0.1350
  159SOL     OW 1917   1.608   0.387   1.950  0.0674 -0.1179 -0.0946
  159SOL    HW1 1918   1.673   0.317   1.959  0.2209  0.1959  1.7195
  159SOL    HW2 1919   1.546   0.354   1.885  1.1200 -1.1407 -0.6288
  160SOL     OW 1920   0.616   1.247   2.085 -0.7786  0.2783  0.3582
  160SOL    HW1 1921   0.644   1.156   2.077  1.1275  0.9767 -2.4071
  160SOL    HW2 1922   0.521   1.244   2.070 -0.6717 -1.1945 -0.2427
  161SOL     OW 1923   1.135   7.464   1.821 -0.0620  0.4907 -0.2125
  161SOL    HW1 1924   1.048   7.428   1.804 -0.3861  1.0413  0.2431
  161SOL    HW2 1925   1.155   7.436   1.910  0.9695 -1.0740 -0.8765
  162SOL     OW 1926   0.517   0.954   1.879  0.4358  0.1382  0.3640
  162SOL    HW1 1927   0.563   0.922   1.957  2.0752  2.0124  0.2471
  162SOL    HW2 1928   0.582   0.948   1.809 -0.2864  0.5620 -0.3632
  163SOL     OW 1929   0.046   0.649   2.139 -0.6084 -0.0872  0.1668
  163SOL    HW1 1930   0.068   0.604   2.058 -0.2784  0.9950 -0.3562
  163SOL    HW2 1931   0.100   0.728   2.139  0.5438 -0.7787  2.1673
  164SOL     OW 1932   1.083   0.196   1.002 -0.1973 -0.6155 -0.6750
  164SOL    HW1 1933   1.023   0.268   1.023  0.0514 -0.5103 -0.3179
  164SOL    HW2 1934   1.133   0.182   1.083  2.7056  1.6034 -1.8917
  165SOL     OW 1935   0.353   0.054   3.297 -0.3702 -0.2375 -0.0164
  165SOL    HW1 1936   0.352  -0.040   3.318 -1.9287 -0.0065  1.0063
  165SOL    HW2 1937   0.419   0.091   3.356 -1.6527 -0.2884  1.5076
  166SOL     OW 1938   6.160   2.855   0.034 -0.2266 -0.0034 -0.0422
  166SOL    HW1 1939   6.228   2.900  -0.017  0.3487  1.2205  1.7158
  166SOL    HW2 1940   6.121   2.924   0.089 -0.1787 -1.3955  1.8293
  167SOL     OW 1941   7.003   1.765   1.367 -0.2403 -0.1956 -0.1011
  167SOL    HW1 1942   7.091   1.796   1.386 -0.2315 -0.3676  0.1350
  167SOL    HW2 1943   6.990   1.787   1.274  0.1762 -0.4794 -0.2301
  168SOL     OW 1944   0.902   0.676   2.036  0.2992  0.0154 -0.3560
  168SOL    HW1 1945   0.853   0.758   2.043 -1.9536 -1.3301  1.2769
  168SOL    HW2 1946   0.837   0.613   2.004  1.6882 -1.3722 -0.5515
  169SOL     OW 1947   0.344   0.490   2.075  0.7021  0.0841 -0.3347
  169SOL    HW1 1948   0.422   0.434   2.080  1.6944  1.2600 -1.7768
  169SOL    HW2 1949   0.366   0.556   2.010 -2.2898 -0.7526 -2.4187
  170SOL     OW 1950   1.999   0.410   0.049  0.3594 -0.8615  0.2114
  170SOL    HW1 1951   2.072   0.396  -0.011  0.8521 -0.1550  0.6259
  170SOL    HW2 1952   1.969   0.322   0.072  1.6016 -1.1823  0.6647
  171SOL     OW 1953   2.381   1.112   1.706 -0.5673 -0.0696  0.6081
  171SOL    HW1 1954   2.298   1.111   1.752 -1.5863 -0.0329 -1.1465
  171SOL    HW2 1955   2.447   1.123   1.775 -2.1182  2.0351  1.8705
  172SOL     OW 1956   2.597   2.394   1.630 -0.0216  0.1527 -0.7439
  172SOL    HW1 1957   2.503   2.379   1.642  0.0920  0.2226  0.3451
  172SOL    HW2 1958   2.607   2.412   1.536 -0.9871 -0.5856 -1.0026
  173SOL     OW 1959   7.731   1.373   1.704 -0.3719 -0.2116 -0.4843
  173SOL    HW1 1960   7.764   1.422   1.629 -0.0415  1.7772  0.8661
  173SOL    HW2 1961   7.801   1.311   1.725  0.2556  0.3890 -0.7832
  174SOL     OW 1962   0.086   4.830   0.476 -0.7953  0.0153 -0.0283
  174SOL    HW1 1963   0.087   4.806   0.383  0.8926 -1.9013  0.4109
  174SOL    HW2 1964   0.174   4.809   0.507 -1.0486  1.4325  1.8441
  175SOL     OW 1965   1.156   0.542   1.115 -0.0500 -0.0803  0.0718
  175SOL    HW1 1966   1.187   0.618   1.165 -0.1368  0.2111 -0.3176
  175SOL    HW2 1967   1.065   0.563   1.094 -0.8788 -1.3336  2.0226
  176SOL     OW 1968   1.086   1.247  12.124  0.5807  0.2498 -0.1441
  176SOL    HW1 1969   1.004   1.290  12.100  0.7185 -0.2093 -1.4766
  176SOL    HW2 1970   1.121   1.301  12.195 -0.5954  0.7603  0.0706
  177SOL     OW 1971   0.425   7.702  11.720  0.5804  0.1209 -0.3633
  177SOL    HW1 1972   0.336   7.703  11.683 -0.1606  0.0719  1.3266
  177SOL    HW2 1973   0.482   7.688  11.644 -0.9394 -1.1282 -1.3484
  178SOL     OW 1974   0.139   0.089   0.216 -0.1112 -0.4122 -0.0038
  178SOL    HW1 1975   0.202   0.121   0.151  2.1714 -2.0280  1.2606
  178SOL    HW2 1976   0.118   0.000   0.187 -0.6943 -0.4073  0.3827
  179SOL     OW 1977   0.757   1.418   2.233  0.3695  0.2344  0.7168
  179SOL    HW1 1978   0.701   1.355   2.188  0.7017 -0.5203  1.3541
  179SOL    HW2 1979   0.725   1.419   2.323  0.0927  1.3013  0.6204
  180SOL     OW 1980   0.594   6.328   2.386 -0.0059 -0.0488 -0.0484
  180SOL    HW1 1981   0.670   6.270   2.374  0.5818  1.1179 -2.6102
  180SOL    HW2 1982   0.631   6.416   2.386 -1.2221  0.4829  0.4813
  181SOL     OW 1983   0.527   1.945  12.227  0.7437 -0.4207 -0.2784
  181SOL    HW1 1984   0.572   1.866  12.256 -0.1629 -1.9074 -2.6115
  181SOL    HW2 1985   0.577   1.974  12.150 -0.7335 -0.6005 -1.3420
  182SOL     OW 1986   6.835   1.410   1.015 -0.2903  0.5781  0.6644
  182SOL    HW1 1987   6.762   1.406   0.954  0.5510  1.5462 -0.4509
  182SOL    HW2 1988   6.840   1.321   1.052 -1.2701  0.1746 -0.1255
  183SOL     OW 1989   0.937   2.207   1.105 -0.0178  0.2942  0.1488
  183SOL    HW1 1990   0.960   2.150   1.031 -0.3731 -1.5525  1.4141
  183SOL    HW2 1991   0.844   2.223   1.094 -0.2438 -0.6566  0.6357
  184SOL     OW 1992   0.318   7.362  12.372 -0.1879  0.2654 -0.3900
  184SOL    HW1 1993   0.257   7.383  12.302  1.4905  1.0170 -1.6996
  184SOL    HW2 1994   0.300   7.427  12.440 -0.6975  0.6177 -0.8577
  185SOL     OW 1995   0.639   1.403   2.491  0.4279  0.0835 -0.6599
  185SOL    HW1 1996   0.704   1.377   2.556 -0.2481  0.1110  0.0319
  185SOL    HW2 1997   0.590   1.473   2.532 -0.4411 -0.3476 -0.9380
  186SOL     OW 1998   7.938   7.540  12.044  0.2044 -0.0203  0.3015
  186SOL    HW1 1999   7.849   7.576  12.050  0.8432  1.5293  0.9310
  186SOL    HW2 2000   7.963   7.554  11.953  0.9787  2.6277  0.8183
  187SOL     OW 2001   7.756   1.557   2.221  0.2920  0.3488  0.1661
  187SOL    HW1 2002   7.667   1.589   2.234  0.7950  2.3255 -0.7251
  187SOL    HW2 2003   7.752   1.507   2.139  0.2007  1.4844 -0.5463
  188SOL     OW 2004   0.546   7.827   2.194  0.5165 -0.3177 -0.3152
  188SOL    HW1 2005   0.619   7.772   2.223 -0.2823  0.3927  3.6877
  188SOL    HW2 2006   0.468   7.775   2.212 -0.1110  0.6443 -0.1708
  189SOL     OW 2007   1.616   0.410   0.884 -0.3380  0.1757  0.1069
  189SOL    HW1 2008   1.531   0.398   0.926 -0.7147  1.3420 -0.2722
  189SOL    HW2 2009   1.595   0.440   0.796  0.4431  1.9636  0.4766
  190SOL     OW 2010   6.824   3.220   3.116 -0.6367  0.1048  0.0551
  190SOL    HW1 2011   6.759   3.262   3.060  0.6647  2.1026 -0.0456
  190SOL    HW2 2012   6.814   3.262   3.201 -2.1488 -2.4446  1.2768
  191SOL     OW 2013   1.066   0.125   1.658 -0.3443 -0.1321 -0.0766
  191SOL    HW1 2014   1.108   0.039   1.652 -1.0008 -0.5115  0.6286
  191SOL    HW2 2015   1.030   0.128   1.747 -0.3540  0.8628 -0.1016
  192SOL     OW 2016   7.549   1.172   1.324 -0.5768 -0.0952 -0.1869
  192SOL    HW1 2017   7.556   1.267   1.329  0.0836 -0.1068 -0.7296
  192SOL    HW2 2018   7.513   1.146   1.408  0.7232  0.5071  0.5953
  193SOL     OW 2019   7.733   7.382   0.604 -0.0760 -0.2895  0.2285
  193SOL    HW1 2020   7.761   7.382   0.696 -2.3723 -1.8859  1.0068
  193SOL    HW2 2021   7.812   7.357   0.556  0.7833 -1.0722  1.9436
  194SOL     OW 2022   7.008   1.394   2.157 -0.2614  0.3988 -0.2200
  194SOL    HW1 2023   7.031   1.301   2.152  2.1959  0.8552  0.7880
  194SOL    HW2 2024   6.914   1.395   2.173 -0.6077 -1.8526 -1.6803
  195SOL     OW 2025   1.803   1.144   2.433  0.0655 -0.5215  0.1208
  195SOL    HW1 2026   1.885   1.144   2.483 -0.4449  1.5433  1.0541
  195SOL    HW2 2027   1.760   1.062   2.458  2.0046 -1.8762 -0.7368
  196SOL     OW 2028   1.289   1.977   0.646  0.1882  0.0229 -0.1529
  196SOL    HW1 2029   1.269   1.921   0.721  0.7177  1.2600  0.9468
  196SOL    HW2 2030   1.368   1.939   0.608  0.5157 -0.0218  0.5524
  197SOL     OW 2031   1.882   1.459   0.090 -0.1675 -0.6857  0.1364
  197SOL    HW1 2032   1.918   1.519   0.024  0.3595 -0.9579  0.1737
  197SOL    HW2 2033   1.857   1.381   0.040 -2.6240  0.2518 -0.2268
  198SOL     OW 2034   7.121   2.115   1.027  0.2761 -0.4478  0.6761
  198SOL    HW1 2035   7.214   2.093   1.039  0.2580 -1.1907 -0.4062
  198SOL    HW2 2036   7.076   2.031   1.036 -0.3884  0.0169  1.9236
  199SOL     OW 2037   0.322   1.262   2.063  0.4054 -0.2623 -0.0570
  199SOL    HW1 2038   0.287   1.352   2.065  0.6583 -0.1689  0.2846
  199SOL    HW2 2039   0.265   1.213   2.122  0.9528 -0.0701  0.6382
  200SOL     OW 2040   1.103   0.740  11.823  0.0951  0.0375  0.1263
  200SOL    HW1 2041   1.057   0.789  11.754  1.6021  0.7422 -0.4182
  200SOL    HW2 2042   1.033   0.699  11.873 -1.0706 -0.0762 -1.5112
  201SOL     OW 2043   0.601   7.443   0.833  0.1867 -0.5740  0.0380
  201SOL    HW1 2044   0.525   7.464   0.887  0.5881 -2.5042  1.4380
  201SOL    HW2 2045   0.661   7.396   0.891  2.3397  0.5728 -1.1125
  202SOL     OW 2046   1.025   1.877   0.827 -0.7188  0.8275 -0.0182
  202SOL    HW1 2047   1.016   1.965   0.792 -0.2427 -0.0814 -2.7185
  202SOL    HW2 2048   0.935   1.849   0.845 -1.1851  0.8780 -2.0034
  203SOL     OW 2049   0.248   0.845   2.130  0.4606 -0.3010  0.0025
  203SOL    HW1 2050   0.331   0.826   2.173  0.6427 -1.0805 -0.6669
  203SOL    HW2 2051   0.236   0.939   2.140  1.6579 -0.1021 -0.3108
  204SOL     OW 2052   1.663   1.315   2.272 -0.3758 -0.2109  0.0614
  204SOL    HW1 2053   1.715   1.293   2.350 -0.4193 -1.5289 -0.2601
  204SOL    HW2 2054   1.700   1.260   2.203  1.0705  2.4601 -1.4215
  205SOL     OW 2055   7.139   2.344   2.773 -0.1647 -0.3868  0.4560
  205SOL    HW1 2056   7.069   2.327   2.836 -0.7415 -0.2644 -0.1476
  205SOL    HW2 2057   7.110   2.301   2.692  1.8533 -3.0540  0.9891
  206SOL     OW 2058   7.142   2.383  11.061  0.2362 -0.3562  0.0663
  206SOL    HW1 2059   7.133   2.475  11.036 -3.0450  0.0474  2.0138
  206SOL    HW2 2060   7.179   2.340  10.984  1.2278  2.4398 -1.1537
  207SOL     OW 2061   0.527   0.102   2.260  0.0021 -0.4788  0.2507
  207SOL    HW1 2062   0.523   0.008   2.276  1.2768 -0.7921 -1.0922
  207SOL    HW2 2063   0.604   0.132   2.308 -0.5397 -0.0685  0.8758
  208SOL     OW 2064   1.414   7.042   1.067 -0.2509  0.0960 -0.6773
  208SOL    HW1 2065   1.387   6.987   1.140 -0.6765  0.6068 -0.4435
  208SOL    HW2 2066   1.449   7.121   1.109  0.4407 -0.0262 -1.0050
  209SOL     OW 2067   7.936   1.081   2.520 -0.2082  0.1261  0.0145
  209SOL    HW1 2068   8.008   1.107   2.578 -1.3635  1.3306  0.9621
  209SOL    HW2 2069   7.916   1.160   2.470  0.4467 -0.7652 -1.7260
  210SOL     OW 2070   7.559   0.465   0.467  0.0748 -0.3856 -0.1042
  210SOL    HW1 2071   7.534   0.415   0.390 -0.8666  0.3467 -0.2873
  210SOL    HW2 2072   7.525   0.414   0.541 -1.0443  0.0543 -0.2997
  211SOL     OW 2073   1.033   6.428   2.582 -0.4219 -0.1791  0.5681
  211SOL    HW1 2074   1.084   6.508   2.571 -1.1573  0.0660 -1.7935
  211SOL    HW2 2075   1.071   6.384   2.658  1.2160  1.4924  0.7697
  212SOL     OW 2076   0.638   0.200   1.368 -0.3275 -0.6128 -0.3233
  212SOL    HW1 2077   0.719   0.214   1.418 -1.1357 -0.5784  1.0383
  212SOL    HW2 2078   0.650   0.115   1.325  0.1137 -0.9999  0.5417
  213SOL     OW 2079   1.434   1.244   0.249  0.3320  0.3899  0.6832
  213SOL    HW1 2080   1.451   1.304   0.176 -0.6489  1.3396  1.1983
  213SOL    HW2 2081   1.513   1.191   0.255  0.5576  0.4778 -0.8839
  214SOL     OW 2082   7.246   2.044   2.414 -0.3563 -0.1778 -0.0642
  214SOL    HW1 2083   7.172   2.033   2.474 -0.1351  0.5718  0.3591
  214SOL    HW2 2084   7.318   2.072   2.469 -0.1626  0.5882 -0.6895
  215SOL     OW 2085   1.360   1.662   1.964  0.7054 -0.1773 -0.7687
  215SOL    HW1 2086   1.325   1.743   1.926 -0.5503 -0.7536 -0.9019
  215SOL    HW2 2087   1.348   1.672   2.058  0.1740 -0.3605 -0.8117
  216SOL     OW 2088   0.770   7.673   2.173 -0.8674  0.0109 -0.3493
  216SOL    HW1 2089   0.743   7.585   2.199 -0.8071  0.0715 -0.0765
  216SOL    HW2 2090   0.791   7.666   2.080  0.5488 -0.6004 -0.0049
  217SOL     OW 2091   0.309   0.574   1.639 -0.0517 -0.4451 -0.5880
  217SOL    HW1 2092   0.309   0.484   1.673 -1.8112 -0.7904 -1.3814
  217SOL    HW2 2093   0.378   0.618   1.688  1.4163 -2.4254 -0.7378
  218SOL     OW 2094   0.227   3.061   0.633 -0.0370 -0.5348  0.4924
  218SOL    HW1 2095   0.290   3.103   0.693  0.1952 -0.7541  0.4024
  218SOL    HW2 2096   0.199   2.982   0.679  0.8857 -1.2268 -0.0959
  219SOL     OW 2097   1.342   6.182   1.203  0.4866 -0.3754  0.0462
  219SOL    HW1 2098   1.402   6.116   1.236 -0.2865 -0.4992  1.3055
  219SOL    HW2 2099   1.328   6.241   1.277  0.4896  0.7069 -0.7870
  220SOL     OW 2100   0.562   0.832  11.530  0.0365  0.3066  0.0802
  220SOL    HW1 2101   0.651   0.796  11.536  0.0417  0.4991  1.4662
  220SOL    HW2 2102   0.574   0.927  11.529 -0.1198  0.3311 -0.8560
  221SOL     OW 2103   1.168   1.028   1.776  0.6315  0.1059 -0.4390
  221SOL    HW1 2104   1.139   0.976   1.701  0.5347 -0.0529 -0.2908
  221SOL    HW2 2105   1.088   1.048   1.824  0.7357 -0.1108 -0.1730
  222SOL     OW 2106   7.035   7.418   2.002  0.3570  0.9187  0.5546
  222SOL    HW1 2107   7.111   7.360   2.001 -0.6151 -0.4958  2.1639
  222SOL    HW2 2108   7.071   7.505   2.017  1.7537  0.5326 -0.3418
  223SOL     OW 2109   7.832   0.535   0.612  0.7553  0.4908  0.4820
  223SOL    HW1 2110   7.843   0.450   0.654  0.1728  0.8212  1.3212
  223SOL    HW2 2111   7.737   0.544   0.600  0.8776  0.6214 -0.4495
  224SOL     OW 2112   0.049   0.532   1.136 -0.0289  0.8541  0.0239
  224SOL    HW1 2113   0.039   0.444   1.100 -0.2085  0.2361  1.4752
  224SOL    HW2 2114  -0.039   0.556   1.164  0.2595  0.8767  0.9443
  225SOL     OW 2115   0.832   7.160  11.344  0.4816 -0.6744  0.9064
  225SOL    HW1 2116   0.847   7.174  11.250 -0.4008  2.0969  1.0717
  225SOL    HW2 2117   0.806   7.069  11.351 -1.1657 -0.5230 -1.8299
  226SOL     OW 2118   0.968   2.570  11.064 -0.8989  0.4909  0.7685
  226SOL    HW1 2119   0.941   2.530  11.146 -1.7244  2.8266  1.7132
  226SOL    HW2 2120   0.888   2.609  11.029 -1.0581 -2.1444 -2.2926
  227SOL     OW 2121   0.388   1.377   2.796 -0.4421 -0.0685  0.1395
  227SOL    HW1 2122   0.342   1.313   2.741 -0.2785 -1.4353  1.4998
  227SOL    HW2 2123   0.388   1.337   2.883 -0.3055  1.8159  1.0481
  228SOL     OW 2124   1.424   0.069   1.787  0.1584 -0.1425 -0.4785
  228SOL    HW1 2125   1.410   0.161   1.765  0.5096 -0.2068 -0.9730
  228SOL    HW2 2126   1.517   0.055   1.775  0.1755 -0.4677 -0.0173
  229SOL     OW 2127   1.255   0.767   1.827  0.3634 -0.4276  0.2915
  229SOL    HW1 2128   1.263   0.858   1.800 -1.1864 -0.6258 -0.9970
  229SOL    HW2 2129   1.161   0.748   1.820  0.7948 -2.4650 -0.7181
  230SOL     OW 2130   7.888   1.905   1.991 -0.2508  0.9327 -0.1073
  230SOL    HW1 2131   7.944   1.852   2.048  0.5452  0.3917 -1.3414
  230SOL    HW2 2132   7.883   1.990   2.034 -1.9121 -0.2080  2.1589
  231SOL     OW 2133   7.610   2.044   1.520  0.1448  0.0105 -0.0214
  231SOL    HW1 2134   7.545   1.984   1.557 -1.0209  1.6041  0.6203
  231SOL    HW2 2135   7.564   2.127   1.513  2.5659  1.6568  2.0032
  232SOL     OW 2136   1.652   7.911   0.368 -0.3709  0.4208 -0.4504
  232SOL    HW1 2137   1.571   7.952   0.337 -0.1961  0.7923 -0.4131
  232SOL    HW2 2138   1.661   7.832   0.314 -0.3215  0.8096 -1.0195
  233SOL     OW 2139   1.061   0.430   0.317 -0.1946 -0.4455 -0.2594
  233SOL    HW1 2140   1.068   0.428   0.221 -1.8542 -0.6414 -0.4180
  233SOL    HW2 2141   1.066   0.338   0.342 -0.9959 -0.5131 -0.3015
  234SOL     OW 2142   7.894   7.676   1.741  0.2583  0.1521 -0.5717
  234SOL    HW1 2143   7.864   7.631   1.820  1.9184 -1.8903 -1.0231
  234SOL    HW2 2144   7.891   7.769   1.764 -1.4540 -0.2484  1.0843
  235SOL     OW 2145   1.793   7.290   0.519  0.1225  0.1213 -0.4352
  235SOL    HW1 2146   1.708   7.298   0.564  1.5878 -1.3272  2.8992
  235SOL    HW2 2147   1.846   7.360   0.556  1.0249 -0.3434 -0.8286
  236SOL     OW 2148   1.825   2.310   1.795 -0.1441  0.1087  0.3590
  236SOL    HW1 2149   1.918   2.290   1.793 -0.1181  0.2683 -0.7554
  236SOL    HW2 2150   1.820   2.406   1.801 -0.2157  0.1873 -0.7864
  237SOL     OW 2151   2.211   0.746   0.269  0.2441 -0.4366  0.9309
  237SOL    HW1 2152   2.236   0.804   0.341 -1.9336  2.0905 -0.2058
  237SOL    HW2 2153   2.286   0.748   0.209  0.0004  1.7615  0.6339
  238SOL     OW 2154   0.243   0.916   2.655 -0.6011 -0.2813  0.6822
  238SOL    HW1 2155   0.229   0.827   2.686 -1.0592 -0.0229  1.2375
  238SOL    HW2 2156   0.237   0.910   2.560 -0.9751 -0.7775  0.7361
  239SOL     OW 2157   0.721   0.065  12.136 -0.3861  0.5860  0.1755
  239SOL    HW1 2158   0.808   0.105  12.130 -0.6279  0.9044 -1.5701
  239SOL    HW2 2159   0.660   0.138  12.123 -0.8599  0.0015 -1.0271
  240SOL     OW 2160   0.245   0.084  11.135  0.0235 -0.0919 -0.2343
  240SOL    HW1 2161   0.267   0.039  11.054  1.3178  0.4972 -0.2337
  240SOL    HW2 2162   0.232   0.175  11.109  1.1299  0.2346  0.3076
  241SOL     OW 2163   3.841   2.681   0.528  0.0434 -0.3592  0.2927
  241SOL    HW1 2164   3.776   2.655   0.464  0.1955 -0.3616  0.1391
  241SOL    HW2 2165   3.918   2.629   0.507 -0.5905 -2.0348  1.8591
  242SOL     OW 2166   7.442   0.573   1.070  0.0530  0.1602  0.1330
  242SOL    HW1 2167   7.485   0.639   1.015 -0.0151 -0.9708 -1.3229
  242SOL    HW2 2168   7.355   0.563   1.031 -0.4754  0.2652  1.2468
  243SOL     OW 2169   1.104   1.343   0.253  0.6292  0.4110 -0.4496
  243SOL    HW1 2170   1.029   1.291   0.281  1.1698  0.7852  1.9083
  243SOL    HW2 2171   1.128   1.307   0.167 -1.2622 -0.7282 -0.5470
  244SOL     OW 2172   7.336   2.030   2.813  0.7163 -0.2499 -0.2762
  244SOL    HW1 2173   7.312   1.998   2.900  1.8400 -2.8835 -0.8490
  244SOL    HW2 2174   7.429   2.011   2.806  0.0404 -3.3903 -3.2705
  245SOL     OW 2175   2.233   1.501   2.045 -0.0425  0.2689 -0.7027
  245SOL    HW1 2176   2.169   1.533   1.982 -0.9133 -1.8499 -0.9776
  245SOL    HW2 2177   2.191   1.514   2.130 -2.0262 -3.1725 -0.9592
  246SOL     OW 2178   0.269   7.477   2.335 -0.4166  0.1827  0.1491
  246SOL    HW1 2179   0.222   7.406   2.379 -0.9227 -1.0377 -2.1985
  246SOL    HW2 2180   0.360   7.447   2.332 -0.7666 -0.8250 -1.5681
  247SOL     OW 2181   2.713   4.640   1.718 -0.5412  0.2750  0.0635
  247SOL    HW1 2182   2.802   4.667   1.742 -1.2913  1.5801  1.6213
  247SOL    HW2 2183   2.674   4.718   1.679 -1.6250  0.4054  1.3076
  248SOL     OW 2184   1.285   7.037   2.747  0.5098 -0.1420 -0.2987
  248SOL    HW1 2185   1.323   7.046   2.834  0.4148 -0.3348 -0.2351
  248SOL    HW2 2186   1.321   7.110   2.697 -0.9689  1.1545  0.4462
  249SOL     OW 2187   7.143   1.114   1.543 -0.2926 -0.0935  0.3768
  249SOL    HW1 2188   7.203   1.185   1.565  0.4601 -0.8379  0.7623
  249SOL    HW2 2189   7.067   1.129   1.599 -1.2100  1.7919 -1.2536
  250SOL     OW 2190   0.447   0.360   2.423  0.2671  0.1039 -0.1244
  250SOL    HW1 2191   0.499   0.365   2.504 -0.4494 -1.1142  0.4304
  250SOL    HW2 2192   0.454   0.269   2.396  1.8678  0.7975 -2.3990
  251SOL     OW 2193   6.624   1.272   2.301 -0.6179  0.1235 -0.2728
  251SOL    HW1 2194   6.662   1.279   2.213 -0.3015  1.1992 -0.0632
  251SOL    HW2 2195   6.698   1.287   2.360 -1.0553  0.6023  0.1596
  252SOL     OW 2196   7.367   1.673  11.517 -0.0974 -0.3396  0.2009
  252SOL    HW1 2197   7.433   1.721  11.566  0.1136  1.3229 -1.5997
  252SOL    HW2 2198   7.401   1.583  11.514  2.5888  0.6223 -1.3821
  253SOL     OW 2199   1.553   1.720   2.353 -0.0888  0.1901 -0.0985
  253SOL    HW1 2200   1.468   1.747   2.387 -0.0288 -1.4180  1.4913
  253SOL    HW2 2201   1.608   1.711   2.430  1.8557  2.0737 -1.1613
  254SOL     OW 2202   0.183   1.107   2.243 -0.2508  0.8642 -0.2409
  254SOL    HW1 2203   0.195   1.034   2.304 -0.2613 -0.1014 -1.3674
  254SOL    HW2 2204   0.127   1.169   2.290 -1.3264 -0.4426  0.2502
  255SOL     OW 2205   7.942   2.690  12.150  0.0408  0.2180  0.7110
  255SOL    HW1 2206   7.963   2.605  12.187  2.8432  0.1165 -0.7853
  255SOL    HW2 2207   7.878   2.728  12.210 -1.8478 -3.1498  1.0587
  256SOL     OW 2208   1.935   0.166   1.086 -0.0637 -0.1457 -0.3835
  256SOL    HW1 2209   1.854   0.121   1.111 -2.1175  2.6674 -1.4699
  256SOL    HW2 2210   1.955   0.131   0.999  0.5321 -1.5793  0.2940
  257SOL     OW 2211   7.262   0.057   1.140  0.5350 -0.3230  0.3519
  257SOL    HW1 2212   7.274   0.014   1.225 -1.1902 -0.2050  0.6885
  257SOL    HW2 2213   7.323   0.011   1.081 -1.0522 -3.1330  0.7257
  258SOL     OW 2214   7.055   1.155   2.045  0.2558 -0.0357 -0.1849
  258SOL    HW1 2215   7.088   1.114   2.125  0.0791 -2.5574 -1.3032
  258SOL    HW2 2216   7.131   1.160   1.987 -0.1902 -1.0040 -0.8886
  259SOL     OW 2217   7.801   0.084   2.794  0.0275  0.2680 -0.5682
  259SOL    HW1 2218   7.823   0.087   2.887 -0.2469 -0.4435 -0.4688
  259SOL    HW2 2219   7.778   0.174   2.771  0.4900  0.5219 -0.0467
  260SOL     OW 2220   1.872   0.393   2.817  0.2982  0.2438 -0.2416
  260SOL    HW1 2221   1.957   0.428   2.791 -0.1295  2.0875  0.7072
  260SOL    HW2 2222   1.809   0.443   2.765 -0.2596 -0.5515 -0.3506
  261SOL     OW 2223   0.589   1.331   3.439 -0.1527 -0.5803 -0.0985
  261SOL    HW1 2224   0.629   1.379   3.511  0.2049 -1.0217  0.0062
  261SOL    HW2 2225   0.564   1.398   3.375  0.5573 -0.2809 -0.0666
  262SOL     OW 2226   0.201   2.389   4.171 -0.3124 -0.5385 -0.3828
  262SOL    HW1 2227   0.111   2.389   4.138 -1.3181  1.2637  2.0310
  262SOL    HW2 2228   0.245   2.456   4.119 -0.6129 -0.7424 -0.9156
  263SOL     OW 2229   1.380   1.360   3.806  0.1899  0.5082 -0.3770
  263SOL    HW1 2230   1.470   1.392   3.814  0.1420  0.6380 -0.3707
  263SOL    HW2 2231   1.389   1.264   3.805  0.0355  0.2749  3.6242
  264SOL     OW 2232   1.016   1.635   3.211 -0.0012 -0.1551 -0.3838
  264SOL    HW1 2233   1.010   1.676   3.125  0.7210 -0.2083 -0.4651
  264SOL    HW2 2234   1.076   1.691   3.261 -0.5707 -0.0129  0.1543
  265SOL     OW 2235   1.461   0.803   2.289  0.5509 -0.1538 -0.4754
  265SOL    HW1 2236   1.375   0.833   2.258  0.1812 -0.2878  0.3862
  265SOL    HW2 2237   1.524   0.846   2.231 -0.1198 -0.6594 -1.6082
  266SOL     OW 2238   1.225   1.977   4.352  0.2206  0.8166  0.6415
  266SOL    HW1 2239   1.268   2.035   4.290 -2.1621 -0.0060 -1.9855
  266SOL    HW2 2240   1.217   2.029   4.432  1.0767  2.9039 -0.5533
  267SOL     OW 2241   1.711   7.914   1.108 -0.1398  0.2011  0.2925
  267SOL    HW1 2242   1.649   7.978   1.143  0.6143  0.4063  1.2597
  267SOL    HW2 2243   1.663   7.873   1.036 -0.9552  1.2250  0.2220
  268SOL     OW 2244   7.848   1.573   3.270  0.2415 -0.0805 -0.1697
  268SOL    HW1 2245   7.852   1.658   3.313 -0.1647  0.5892 -1.4090
  268SOL    HW2 2246   7.789   1.586   3.195  0.0283 -1.4950 -0.2831
  269SOL     OW 2247   0.506   1.576   3.279 -0.1530  0.3824  0.8837
  269SOL    HW1 2248   0.534   1.661   3.315 -0.0979  0.6838  0.1536
  269SOL    HW2 2249   0.495   1.593   3.185  0.4815 -0.5794  0.6186
  270SOL     OW 2250   0.351   1.659   2.376 -0.4910 -0.3544 -0.1053
  270SOL    HW1 2251   0.443   1.682   2.390 -0.1007 -1.5794 -0.4641
  270SOL    HW2 2252   0.346   1.567   2.401 -1.1142 -0.9141 -2.1058
  271SOL     OW 2253   2.899   2.874   2.547  0.5712  0.3120  0.0939
  271SOL    HW1 2254   2.961   2.803   2.536  1.0371  0.5684  0.9846
  271SOL    HW2 2255   2.909   2.901   2.638 -0.5872  0.5999  0.1479
  272SOL     OW 2256   1.785   7.689   4.101 -0.0644 -0.0736  0.5914
  272SOL    HW1 2257   1.786   7.593   4.097 -0.0860 -0.0738 -3.1796
  272SOL    HW2 2258   1.698   7.711   4.134 -0.1862 -1.3461  1.1787
  273SOL     OW 2259   2.244   0.107   5.011 -0.2863 -0.5707 -0.0070
  273SOL    HW1 2260   2.168   0.132   5.064 -0.5170 -2.1006  0.4232
  273SOL    HW2 2261   2.275   0.190   4.974 -1.5106  0.2257  0.6669
  274SOL     OW 2262   2.509   2.707   1.362 -0.1088 -0.3636  0.4456
  274SOL    HW1 2263   2.533   2.776   1.424 -0.6638  0.9971 -0.7877
  274SOL    HW2 2264   2.543   2.738   1.278 -0.4256 -1.5833 -0.1523
  275SOL     OW 2265   0.472   2.160   2.385 -0.4315 -0.3537  0.5690
  275SOL    HW1 2266   0.468   2.096   2.455  1.3328 -1.6442 -0.4408
  275SOL    HW2 2267   0.420   2.122   2.314 -0.1600 -0.2095  0.2929
  276SOL     OW 2268   1.423   0.334   1.694  0.1222  0.0179  0.2829
  276SOL    HW1 2269   1.430   0.429   1.688 -1.5012  0.0775 -2.6647
  276SOL    HW2 2270   1.351   0.312   1.634  1.2349 -3.1590 -0.0605
  277SOL     OW 2271   1.661   0.701   3.744 -0.0442  0.0511  0.2199
  277SOL    HW1 2272   1.576   0.663   3.723 -0.8846  1.6170  0.6709
  277SOL    HW2 2273   1.672   0.686   3.838 -0.3711  0.8583  0.3970
  278SOL     OW 2274   0.045   2.994   3.210  0.4017  0.6543  0.1760
  278SOL    HW1 2275   0.070   2.970   3.299  0.7582  1.7096  0.3773
  278SOL    HW2 2276   0.106   3.064   3.186  1.1470 -0.4905 -1.3953
  279SOL     OW 2277   1.299   7.595   0.331 -0.0651 -0.3019 -0.2739
  279SOL    HW1 2278   1.354   7.549   0.267 -1.2694 -2.8480  0.3890
  279SOL    HW2 2279   1.218   7.613   0.284 -0.2800 -0.5282  0.0119
  280SOL     OW 2280   1.318   1.020   4.061  0.5984  0.0854  0.1950
  280SOL    HW1 2281   1.249   1.087   4.070  0.7476  0.2349  0.2303
  280SOL    HW2 2282   1.339   1.021   3.967 -1.3736 -1.8884 -0.3631
  281SOL     OW 2283   0.078   4.049   2.441 -0.6582 -0.3263  0.3988
  281SOL    HW1 2284   0.157   4.088   2.477 -0.5425  0.1431 -0.3551
  281SOL    HW2 2285   0.025   4.028   2.518  0.4305 -1.1896  0.9473
  282SOL     OW 2286   1.796   0.222  12.472  0.6228  0.2203 -0.5476
  282SOL    HW1 2287   1.732   0.197  12.405  1.7958 -1.1761 -1.1918
  282SOL    HW2 2288   1.749   0.210  12.555 -0.5919  1.2146 -1.0447
  283SOL     OW 2289   7.234   1.346   1.296 -0.2041  0.1951  0.0678
  283SOL    HW1 2290   7.176   1.418   1.272  0.4859  0.4957 -0.7351
  283SOL    HW2 2291   7.198   1.270   1.250 -2.0247 -0.4435  2.3469
  284SOL     OW 2292   1.306   1.152   3.299  0.3220 -0.2129  0.5342
  284SOL    HW1 2293   1.271   1.161   3.388 -0.3966  0.5389  0.1860
  284SOL    HW2 2294   1.229   1.158   3.242  0.7644 -0.7501 -0.1444
  285SOL     OW 2295   1.648   0.467   1.402 -0.1657 -0.0741  0.8514
  285SOL    HW1 2296   1.725   0.496   1.353  1.1933  0.5314  3.1814
  285SOL    HW2 2297   1.630   0.379   1.369  1.1748 -0.0015 -0.1451
  286SOL     OW 2298   1.072   2.258   3.713  0.0551 -0.0030 -0.2874
  286SOL    HW1 2299   1.150   2.296   3.672  0.2227 -1.7600 -1.6943
  286SOL    HW2 2300   1.001   2.318   3.689  0.4800  0.0184 -1.5885
  287SOL     OW 2301   7.394   3.207   3.708  0.4359 -0.3139 -0.5191
  287SOL    HW1 2302   7.450   3.199   3.631 -1.0627  1.9319 -1.9777
  287SOL    HW2 2303   7.397   3.300   3.731  0.5988 -0.8805  2.0040
  288SOL     OW 2304   1.720   1.156   1.674  0.1878  0.9510  0.1225
  288SOL    HW1 2305   1.750   1.089   1.613 -0.8453  1.2373 -0.7294
  288SOL    HW2 2306   1.788   1.160   1.741  1.1935  0.4102 -0.8433
  289SOL     OW 2307   1.169   0.792   1.281  0.4012  0.0499  0.1036
  289SOL    HW1 2308   1.077   0.803   1.305  0.4059  2.3038 -0.7386
  289SOL    HW2 2309   1.176   0.831   1.194  2.3752  0.9387  0.6116
  290SOL     OW 2310   1.685   1.826   2.821 -0.0540  0.2307 -0.9939
  290SOL    HW1 2311   1.687   1.738   2.859 -2.7057 -0.4507 -2.1613
  290SOL    HW2 2312   1.777   1.852   2.815  0.8484 -2.5712 -0.8766
  291SOL     OW 2313   0.821   7.446   2.310 -0.4670 -0.4657  0.0415
  291SOL    HW1 2314   0.791   7.374   2.365  0.7445 -0.2216  1.0413
  291SOL    HW2 2315   0.915   7.453   2.327 -0.2493  0.2563 -1.3188
  292SOL     OW 2316   1.642   2.678   4.156 -0.2905  0.0277 -0.7398
  292SOL    HW1 2317   1.552   2.646   4.160 -0.4628  0.6054  0.0401
  292SOL    HW2 2318   1.686   2.637   4.230 -0.9228  2.7688  1.3120
  293SOL     OW 2319   1.254   0.928   4.834 -0.2688  0.3557  0.3375
  293SOL    HW1 2320   1.172   0.951   4.877 -0.5270  0.7925 -0.3725
  293SOL    HW2 2321   1.250   0.972   4.749 -0.0264 -0.9606 -0.3829
  294SOL     OW 2322   2.394   1.044   2.876  0.2700  0.1297 -0.0946
  294SOL    HW1 2323   2.470   1.102   2.879  0.2829  0.1850 -1.1581
  294SOL    HW2 2324   2.378   1.029   2.783  0.6066 -2.0196  0.1289
  295SOL     OW 2325   1.048   1.450   1.955 -0.1060  0.6729  0.0620
  295SOL    HW1 2326   1.092   1.523   1.914  0.2201  1.3768  1.5880
  295SOL    HW2 2327   1.076   1.373   1.905 -0.6868  1.5890 -1.7359
  296SOL     OW 2328   1.041   0.699   3.191  0.5663  0.0563  0.3385
  296SOL    HW1 2329   1.003   0.642   3.125 -1.5275  1.2238  0.4541
  296SOL    HW2 2330   1.120   0.734   3.149 -0.9537  1.1463 -1.8320
  297SOL     OW 2331   2.553   1.420   3.097  0.7461  0.3388 -0.1773
  297SOL    HW1 2332   2.540   1.357   3.025  1.6547  0.5349 -0.5312
  297SOL    HW2 2333   2.508   1.380   3.172  1.7531 -1.0110 -0.2454
  298SOL     OW 2334   1.605   1.213   2.006  0.0003 -0.4044 -0.1070
  298SOL    HW1 2335   1.527   1.179   2.049  0.3191 -1.0986 -0.0557
  298SOL    HW2 2336   1.580   1.300   1.974 -1.2580 -1.2080 -1.3919
  299SOL     OW 2337   2.634   7.514   2.581  0.4024  0.3388  0.3720
  299SOL    HW1 2338   2.565   7.517   2.514 -0.5948  0.7745  1.3953
  299SOL    HW2 2339   2.619   7.432   2.628  1.4248 -0.2263 -0.2290
  300SOL     OW 2340   2.170   0.911   2.633  0.2060 -0.6540  0.8381
  300SOL    HW1 2341   2.160   0.915   2.538  1.4029  2.2708  0.7224
  300SOL    HW2 2342   2.090   0.868   2.664 -0.8681 -0.4089 -1.4068
  301SOL     OW 2343   3.236   1.669   1.750  0.4162 -0.2491  0.0466
  301SOL    HW1 2344   3.279   1.591   1.787  0.3342  0.3721  1.5441
  301SOL    HW2 2345   3.307   1.722   1.716  0.4515 -1.0774 -1.2198
  302SOL     OW 2346   1.930   0.777   3.696 -0.0115 -0.1450 -0.0289
  302SOL    HW1 2347   1.840   0.745   3.693 -0.8739  1.9965  1.2631
  302SOL    HW2 2348   1.968   0.749   3.612 -2.1076 -0.4012 -0.9443
  303SOL     OW 2349   1.477   1.092   2.406  0.2299  0.2679 -0.4449
  303SOL    HW1 2350   1.506   1.072   2.317  1.5259 -0.0474  0.0311
  303SOL    HW2 2351   1.525   1.171   2.430 -0.8482  0.9154 -0.3669
  304SOL     OW 2352   1.483   0.929   3.571  0.8426  0.3991  0.1704
  304SOL    HW1 2353   1.410   0.916   3.511 -0.3284  1.9434  1.1586
  304SOL    HW2 2354   1.487   0.848   3.622  0.5220 -0.1115 -0.5978
  305SOL     OW 2355   1.750   2.321   2.781 -0.0048  0.7735 -0.0437
  305SOL    HW1 2356   1.681   2.302   2.844  0.7050  0.9396  0.7994
  305SOL    HW2 2357   1.809   2.381   2.826  1.2324 -0.1511 -0.3692
  306SOL     OW 2358   0.557   1.620   3.014 -0.2357  0.0459 -0.5017
  306SOL    HW1 2359   0.477   1.647   2.969 -0.1740 -0.3046 -0.8246
  306SOL    HW2 2360   0.619   1.691   2.999  0.0347 -0.4150 -1.6290
  307SOL     OW 2361   2.218   7.461   6.301 -0.1237  0.2318  0.3652
  307SOL    HW1 2362   2.227   7.387   6.361  0.6476  1.0400  1.2848
  307SOL    HW2 2363   2.279   7.442   6.230  0.7927  0.4212  1.0834
  308SOL     OW 2364   7.976   1.240   2.967  0.0058  0.7129 -0.4917
  308SOL    HW1 2365   7.934   1.290   3.037 -1.4410  2.6818 -2.6313
  308SOL    HW2 2366   8.008   1.161   3.011 -0.7184  1.8758  2.3878
  309SOL     OW 2367   0.374   0.732   1.916  0.9704 -0.0842  0.4151
  309SOL    HW1 2368   0.417   0.813   1.888 -0.2388  1.4666  2.7217
  309SOL    HW2 2369   0.323   0.757   1.993 -1.0196 -2.6324  0.0789
  310SOL     OW 2370   0.364   2.377   2.518 -0.1790 -0.1248  0.2019
  310SOL    HW1 2371   0.412   2.308   2.471  0.5090 -0.4311  1.3304
  310SOL    HW2 2372   0.315   2.330   2.586 -0.3362  0.4247  0.4703
  311SOL     OW 2373   0.743   3.324   4.946 -0.3172  0.0258 -0.6019
  311SOL    HW1 2374   0.837   3.304   4.949 -0.2081  0.6834  0.8448
  311SOL    HW2 2375   0.708   3.263   4.881  1.0530 -0.4361 -0.9425
  312SOL     OW 2376   2.636   2.554   1.989  0.3314 -0.7382  0.1215
  312SOL    HW1 2377   2.570   2.519   1.930  0.3019 -0.2550 -0.1379
  312SOL    HW2 2378   2.661   2.638   1.951  1.3367 -1.0604  0.0383
  313SOL     OW 2379   2.080   1.725   2.359 -0.0717  0.4790 -0.1719
  313SOL    HW1 2380   2.087   1.768   2.444  2.0023 -0.1060  0.0191
  313SOL    HW2 2381   2.039   1.641   2.377  1.4790 -0.1699  0.5034
  314SOL     OW 2382   7.264   2.525   3.181 -0.0411  0.3807 -0.3259
  314SOL    HW1 2383   7.295   2.616   3.183  0.5097  0.3917 -3.3456
  314SOL    HW2 2384   7.175   2.531   3.146 -0.2015 -0.2231 -0.0368
  315SOL     OW 2385   2.125   0.329   2.077  0.0656  0.1421 -0.1317
  315SOL    HW1 2386   2.036   0.334   2.113 -0.5817 -0.8951 -1.5132
  315SOL    HW2 2387   2.137   0.412   2.031  0.4027  0.9166  1.2947
  316SOL     OW 2388   2.398   0.147   3.210  0.5684 -0.2714  0.3147
  316SOL    HW1 2389   2.405   0.055   3.184  1.4289 -0.4871  1.2584
  316SOL    HW2 2390   2.311   0.173   3.179  0.4035 -1.3234 -0.1893
  317SOL     OW 2391   1.127   1.618   2.798  0.6036  0.3038 -0.1126
  317SOL    HW1 2392   1.090   1.532   2.781  0.4272  0.5512 -1.0507
  317SOL    HW2 2393   1.063   1.661   2.855 -0.2948  0.5099 -1.2298
  318SOL     OW 2394   7.995   1.997   2.564  0.2355  0.6938  0.4024
  318SOL    HW1 2395   8.063   1.983   2.499 -1.1290 -0.7516 -0.7797
  318SOL    HW2 2396   8.038   1.980   2.648  2.0697  2.7482 -0.0047
  319SOL     OW 2397   1.048   1.887   2.396  0.0552 -0.1998 -0.0883
  319SOL    HW1 2398   1.084   1.957   2.341  0.6600 -1.3013 -1.1413
  319SOL    HW2 2399   1.076   1.910   2.485 -0.1466  1.1247 -0.3386
  320SOL     OW 2400   0.127   1.206   3.520  0.2065  0.1754 -0.0811
  320SOL    HW1 2401   0.211   1.250   3.523  0.1647  0.3908 -1.4596
  320SOL    HW2 2402   0.074   1.257   3.458 -0.4962 -0.6780 -0.2176
  321SOL     OW 2403   0.958   1.622   1.420  0.2775 -0.8009  0.2612
  321SOL    HW1 2404   0.908   1.667   1.351 -0.9195 -1.2242  0.8333
  321SOL    HW2 2405   1.048   1.650   1.405 -0.2114  0.5789 -0.3512
  322SOL     OW 2406   0.487   2.920   3.815 -0.5465 -0.0233  0.1712
  322SOL    HW1 2407   0.561   2.935   3.756 -0.4962  0.1600  0.2808
  322SOL    HW2 2408   0.513   2.843   3.866  0.2228  0.9141  1.2422
  323SOL     OW 2409   1.071   0.690   2.897  0.2155 -0.8427  0.1795
  323SOL    HW1 2410   1.088   0.691   2.803 -0.1040  1.0328  0.1001
  323SOL    HW2 2411   1.154   0.717   2.937 -0.3468  0.8877  0.2478
  324SOL     OW 2412   1.618   7.581   3.295  0.2848 -0.5291  0.4966
  324SOL    HW1 2413   1.697   7.628   3.268 -0.1027 -0.7562 -1.1368
  324SOL    HW2 2414   1.547   7.623   3.247 -0.6307 -0.2649  2.0193
  325SOL     OW 2415   2.913   1.668   2.246 -0.2156 -0.1132 -0.0983
  325SOL    HW1 2416   2.896   1.628   2.160  0.4974  0.8257 -0.6991
  325SOL    HW2 2417   3.003   1.700   2.240  0.1455 -0.7954  1.3214
  326SOL     OW 2418   0.479   1.100   4.489  0.2503 -0.2783  0.5307
  326SOL    HW1 2419   0.566   1.060   4.485  0.4778  0.2003  0.6196
  326SOL    HW2 2420   0.482   1.170   4.423 -0.8172 -1.7053 -1.1099
  327SOL     OW 2421   0.943   1.034   1.139 -0.2883 -0.9499  0.1319
  327SOL    HW1 2422   0.924   1.011   1.048  0.7072 -3.1389  0.4075
  327SOL    HW2 2423   0.860   1.020   1.185 -1.2775  1.7753 -0.6138
  328SOL     OW 2424   2.933   7.032   5.111  0.0320  0.8158  0.2926
  328SOL    HW1 2425   2.877   7.108   5.127  1.5257  1.8449  0.9061
  328SOL    HW2 2426   2.880   6.974   5.058 -1.5027  1.8655  0.6078
  329SOL     OW 2427   7.927   2.169   2.094 -0.3877  0.0232 -0.4645
  329SOL    HW1 2428   7.870   2.242   2.119 -0.4968  0.5386 -2.0790
  329SOL    HW2 2429   8.001   2.175   2.153 -1.9229 -0.6153  1.6516
  330SOL     OW 2430   0.396   7.603   1.759 -0.1361  1.0120 -0.3877
  330SOL    HW1 2431   0.443   7.562   1.687 -0.9631  1.3537 -1.1370
  330SOL    HW2 2432   0.306   7.573   1.749 -0.1773  0.6477  0.8161
  331SOL     OW 2433   2.409   6.826   4.015  0.1510 -0.2588  0.1598
  331SOL    HW1 2434   2.440   6.908   3.979  1.2084  0.3074  2.2314
  331SOL    HW2 2435   2.328   6.848   4.061  0.4846 -0.3457  0.7998
  332SOL     OW 2436   2.647   7.369   1.664  0.0304 -0.0703 -0.0628
  332SOL    HW1 2437   2.725   7.341   1.616  0.2886  0.2975  0.1346
  332SOL    HW2 2438   2.652   7.464   1.663  0.2017 -0.0533  0.9426
  333SOL     OW 2439   1.063   7.028   0.958 -0.4682  0.5495  0.2176
  333SOL    HW1 2440   1.068   7.026   1.053  0.6849 -1.0479  0.1661
  333SOL    HW2 2441   0.984   6.979   0.936 -0.0949 -0.1289  0.3473
  334SOL     OW 2442   1.226   1.162   3.592 -0.0025 -0.5554  0.3754
  334SOL    HW1 2443   1.169   1.194   3.662 -0.7605 -0.0918 -0.4377
  334SOL    HW2 2444   1.289   1.105   3.637 -1.0078 -0.9683  1.3074
  335SOL     OW 2445   0.140   0.388   3.894 -0.0416 -0.1903  0.7838
  335SOL    HW1 2446   0.200   0.314   3.904  0.1031  0.0932  2.2614
  335SOL    HW2 2447   0.191   0.456   3.852 -0.3673 -1.1206 -1.2426
  336SOL     OW 2448   5.812   2.558   3.187 -0.2572 -0.2399 -0.1138
  336SOL    HW1 2449   5.791   2.557   3.280 -0.6769  2.9341 -0.0618
  336SOL    HW2 2450   5.908   2.561   3.185 -0.1451 -2.3963  0.0830
  337SOL     OW 2451   1.578   2.312   4.427 -0.4032  0.6162  0.2583
  337SOL    HW1 2452   1.635   2.283   4.498  0.5228  1.8132  0.0358
  337SOL    HW2 2453   1.489   2.293   4.459  0.0828 -1.3423  0.5719
  338SOL     OW 2454   0.584   0.798   1.252  0.4140 -0.2649 -0.1325
  338SOL    HW1 2455   0.511   0.795   1.315  0.9017  0.3727  0.4740
  338SOL    HW2 2456   0.614   0.707   1.247  0.6653 -0.2559  0.9176
  339SOL     OW 2457   0.309   0.934   2.960  0.2622 -0.1680  0.4567
  339SOL    HW1 2458   0.329   0.943   2.867 -0.8643  0.0073  0.2190
  339SOL    HW2 2459   0.219   0.901   2.963  0.6616 -1.2663  1.4726
  340SOL     OW 2460   0.939   1.197   4.165  0.4589  0.0920 -0.0635
  340SOL    HW1 2461   1.012   1.225   4.111 -0.3437  0.3003 -1.0677
  340SOL    HW2 2462   0.899   1.278   4.196  0.4045 -0.0125  0.1454
  341SOL     OW 2463   0.906   1.871   4.008 -0.1705  0.4085  0.6969
  341SOL    HW1 2464   0.958   1.942   3.970 -0.4384 -0.3825 -1.2813
  341SOL    HW2 2465   0.956   1.792   3.987 -0.2015 -0.0657  2.2979
  342SOL     OW 2466   1.105   1.123   2.688  0.9361 -0.7515 -0.4149
  342SOL    HW1 2467   1.144   1.208   2.709  0.2774 -0.2632 -1.0922
  342SOL    HW2 2468   1.067   1.093   2.771  0.4969 -0.0114 -0.3376
  343SOL     OW 2469   2.526   7.852   3.304  0.1684  0.0667 -0.6385
  343SOL    HW1 2470   2.595   7.888   3.359 -0.4887  4.1145 -2.1491
  343SOL    HW2 2471   2.457   7.827   3.366  1.4083 -0.3784  0.6216
  344SOL     OW 2472   1.009   1.935   1.668 -0.1006 -0.1764 -0.1670
  344SOL    HW1 2473   1.075   1.980   1.721 -0.3456  0.3062 -0.2660
  344SOL    HW2 2474   1.038   1.843   1.666 -0.1822 -0.2482  0.9682
  345SOL     OW 2475   0.187   1.367   4.180  0.2379 -0.3338 -0.1524
  345SOL    HW1 2476   0.148   1.363   4.267  1.2691  0.5354  0.3812
  345SOL    HW2 2477   0.113   1.364   4.119 -0.5878  0.4623  0.7921
  346SOL     OW 2478   2.085   6.899   0.511  0.3765  0.7056 -0.1600
  346SOL    HW1 2479   2.124   6.838   0.574  0.7177 -0.3836 -1.3755
  346SOL    HW2 2480   1.995   6.910   0.541  0.5034  0.1275  0.4546
  347SOL     OW 2481   0.453   1.121   1.430 -0.1205  0.5906  0.2341
  347SOL    HW1 2482   0.453   1.172   1.349  1.4844  0.4239  0.1033
  347SOL    HW2 2483   0.458   1.186   1.500  1.9662  0.6690  0.0667
  348SOL     OW 2484   2.568   0.443   3.701  0.7560  0.0994  0.0761
  348SOL    HW1 2485   2.499   0.505   3.728  1.1296 -0.0525  1.4869
  348SOL    HW2 2486   2.522   0.360   3.688  0.4531  0.3522 -0.4690
  349SOL     OW 2487   1.723   1.676   2.577  0.5664  0.1494  0.3716
  349SOL    HW1 2488   1.730   1.587   2.612  1.1257  0.2253  0.4628
  349SOL    HW2 2489   1.711   1.731   2.654 -0.5240  0.0813  0.2580
  350SOL     OW 2490   0.907   0.844   2.575 -0.0102 -0.3141 -0.0931
  350SOL    HW1 2491   0.917   0.878   2.486 -0.5687  0.8878  0.2868
  350SOL    HW2 2492   0.923   0.919   2.632  0.4590 -1.0909  0.8436
  351SOL     OW 2493   0.100   0.449   4.131  0.6147  0.0019 -0.4430
  351SOL    HW1 2494   0.012   0.480   4.151  0.5926 -0.7025  0.6168
  351SOL    HW2 2495   0.094   0.416   4.041 -0.9357 -2.5977  0.5171
  352SOL     OW 2496   1.509   1.256   3.129  0.5044 -0.6949 -0.0448
  352SOL    HW1 2497   1.440   1.223   3.186  0.1915 -1.8040 -1.0325
  352SOL    HW2 2498   1.464   1.311   3.065  0.8284  0.3818  0.6366
  353SOL     OW 2499   2.821   2.461   2.622 -0.4265 -0.1848 -0.2982
  353SOL    HW1 2500   2.915   2.469   2.638 -0.5596  0.5672  0.2029
  353SOL    HW2 2501   2.806   2.512   2.542 -0.3049 -0.9327 -0.8094
  354SOL     OW 2502   1.459   0.535   3.034 -0.2706 -0.5553  0.2718
  354SOL    HW1 2503   1.465   0.466   3.100 -0.1923 -0.1999  0.6471
  354SOL    HW2 2504   1.550   0.564   3.022 -0.2388 -0.8775 -0.2758
  355SOL     OW 2505   1.162   4.300   4.697 -0.1650 -0.1152 -0.3005
  355SOL    HW1 2506   1.128   4.375   4.649 -0.6464  0.2268  0.5564
  355SOL    HW2 2507   1.234   4.335   4.749 -1.2571  0.0742  1.1506
  356SOL     OW 2508   2.181   6.874   4.138 -0.2469  0.1437 -0.1585
  356SOL    HW1 2509   2.104   6.844   4.187  0.4142 -1.6825 -0.1488
  356SOL    HW2 2510   2.147   6.894   4.051 -0.6104 -1.7227 -0.4938
  357SOL     OW 2511   1.865   0.575   4.203  0.4297  0.9981 -0.2101
  357SOL    HW1 2512   1.930   0.586   4.273  2.2015 -2.7206 -1.0037
  357SOL    HW2 2513   1.915   0.585   4.122 -0.1898 -0.7283 -0.8530
  358SOL     OW 2514   1.191   0.861   0.962  0.5463  0.0517 -0.0205
  358SOL    HW1 2515   1.169   0.880   0.870 -0.0990  0.2045  0.1610
  358SOL    HW2 2516   1.286   0.864   0.964  0.7134 -2.3287 -1.2072
  359SOL     OW 2517   3.239   7.223   4.546  0.0921  0.1170  0.7721
  359SOL    HW1 2518   3.218   7.130   4.550  1.9659 -0.2737  3.2724
  359SOL    HW2 2519   3.158   7.267   4.572 -0.2151 -0.8985  1.5655
  360SOL     OW 2520   6.934   2.632   2.652  0.2565 -0.2617  0.2012
  360SOL    HW1 2521   6.920   2.605   2.561  0.0232 -0.4502  0.2945
  360SOL    HW2 2522   6.916   2.726   2.651  2.4503  0.2070 -0.4262
  361SOL     OW 2523   6.242   1.944   2.495 -0.0644 -0.2084  0.0564
  361SOL    HW1 2524   6.198   1.986   2.421 -0.3626 -1.6828 -0.6313
  361SOL    HW2 2525   6.263   1.856   2.464  0.6103 -0.5580  1.4319
  362SOL     OW 2526   1.594   1.716   3.239 -0.3221 -0.3012 -0.1815
  362SOL    HW1 2527   1.519   1.659   3.221  0.0494 -1.0862  0.6490
  362SOL    HW2 2528   1.559   1.787   3.293 -0.4792 -0.6736  0.2145
  363SOL     OW 2529   0.120   2.153   4.631  0.9326  0.2499  0.2808
  363SOL    HW1 2530   0.041   2.172   4.580  1.4327  0.5111 -0.4240
  363SOL    HW2 2531   0.099   2.074   4.680  0.5273 -0.1766 -0.5586
  364SOL     OW 2532   1.089   1.534   3.864 -0.0075  0.0868 -0.5734
  364SOL    HW1 2533   1.124   1.457   3.819 -0.9523 -0.4456 -0.4416
  364SOL    HW2 2534   1.166   1.582   3.893  0.6088 -0.1962 -1.6794
  365SOL     OW 2535   3.416   1.769   3.342  0.2613  0.5373 -0.2092
  365SOL    HW1 2536   3.488   1.706   3.336  0.8107  1.2366 -1.4218
  365SOL    HW2 2537   3.419   1.800   3.433 -0.2929 -1.4549  0.5431
  366SOL     OW 2538   7.996   2.718   4.029  0.0842  0.0942 -0.5424
  366SOL    HW1 2539   7.961   2.791   4.080  0.0940  0.7124 -1.4080
  366SOL    HW2 2540   7.921   2.662   4.012  0.4354 -1.3079  2.0260
  367SOL     OW 2541   2.460   0.597   1.374  0.1613  0.0748  0.9999
  367SOL    HW1 2542   2.374   0.569   1.405 -0.1450  1.4664  1.4987
  367SOL    HW2 2543   2.493   0.654   1.444  1.2931 -0.0749  0.6081
  368SOL     OW 2544   1.350   0.363   5.428 -0.1553 -0.3484  0.2122
  368SOL    HW1 2545   1.380   0.279   5.394  1.4914 -0.1159  0.9671
  368SOL    HW2 2546   1.278   0.341   5.488  0.7642 -1.3200  1.0034
  369SOL     OW 2547   2.181   6.841   4.709  0.6510 -0.1979  0.3508
  369SOL    HW1 2548   2.268   6.803   4.716  0.8482  0.1169 -0.4065
  369SOL    HW2 2549   2.130   6.777   4.660  0.7876  0.1823 -0.2881
  370SOL     OW 2550   1.792   7.185   4.368  0.1240  0.8215  0.1198
  370SOL    HW1 2551   1.705   7.178   4.329 -0.3854  2.0004  0.9894
  370SOL    HW2 2552   1.808   7.098   4.407  0.0483  0.0881 -1.4338
  371SOL     OW 2553   7.879   2.045   2.988 -0.0455 -0.4361  0.9295
  371SOL    HW1 2554   7.918   2.029   3.074  1.7783 -0.4913  0.1251
  371SOL    HW2 2555   7.953   2.052   2.928 -1.2320  0.5787 -0.5028
  372SOL     OW 2556   2.013   0.645   4.573  0.0863  0.4843  0.4855
  372SOL    HW1 2557   2.030   0.676   4.484 -0.4733  2.2110  0.9420
  372SOL    HW2 2558   2.099   0.651   4.617  0.0779  0.9684  0.4391
  373SOL     OW 2559   1.575   2.344   2.111 -0.7239  0.0565 -0.0275
  373SOL    HW1 2560   1.627   2.362   2.189 -1.5395 -0.7037  0.7143
  373SOL    HW2 2561   1.623   2.274   2.066 -1.5630 -1.3189  1.1524
  374SOL     OW 2562   0.466   0.053   3.599  0.0599 -0.2000 -0.0471
  374SOL    HW1 2563   0.529   0.001   3.549  0.3736  0.6031 -0.5128
  374SOL    HW2 2564   0.485   0.032   3.691  1.2558  0.2907 -0.1654
  375SOL     OW 2565   5.959   1.432   3.046 -0.7481 -0.2308  0.4873
  375SOL    HW1 2566   5.882   1.484   3.068 -0.0266 -0.5700  4.5807
  375SOL    HW2 2567   6.033   1.493   3.055 -0.2925 -0.4025 -1.4619
  376SOL     OW 2568   0.664   0.890   3.232 -0.1499 -0.5993 -0.0860
  376SOL    HW1 2569   0.699   0.874   3.144 -0.6165 -1.3350 -0.1438
  376SOL    HW2 2570   0.669   0.985   3.242 -0.2244 -0.4924 -0.9684
  377SOL     OW 2571   1.420   1.070   3.793 -0.4672 -0.5155  0.5226
  377SOL    HW1 2572   1.505   1.096   3.829 -1.2695  0.4547  1.8405
  377SOL    HW2 2573   1.441   1.013   3.719  1.3157 -0.4801  0.9551
  378SOL     OW 2574   1.263   6.854   0.812  0.1514 -0.3840 -0.0648
  378SOL    HW1 2575   1.222   6.932   0.850 -2.8234 -0.2985 -2.9598
  378SOL    HW2 2576   1.353   6.855   0.845 -0.8227  2.1229  3.0057
  379SOL     OW 2577   0.973   7.403   1.173 -0.1386  0.0078 -0.5098
  379SOL    HW1 2578   1.050   7.350   1.196  0.5751  0.3690 -1.9433
  379SOL    HW2 2579   0.953   7.453   1.252  0.8782 -0.3610 -0.0065
  380SOL     OW 2580   2.619   1.621   2.051 -0.1184  0.3955  0.2143
  380SOL    HW1 2581   2.566   1.567   1.993  2.1120 -2.9649  0.9930
  380SOL    HW2 2582   2.662   1.685   1.994 -0.9234 -0.3015 -1.1996
  381SOL     OW 2583   0.954   1.460   4.826 -0.1198  0.2679  0.1794
  381SOL    HW1 2584   0.860   1.466   4.808 -0.1103  0.4541  0.1921
  381SOL    HW2 2585   0.983   1.387   4.771 -0.0480  0.9884 -0.7778
  382SOL     OW 2586   2.636   1.791   3.307  0.2582 -0.2032 -0.6571
  382SOL    HW1 2587   2.571   1.826   3.246  0.2857 -0.2438 -0.7100
  382SOL    HW2 2588   2.720   1.802   3.262  0.2041 -0.9251 -0.9462
  383SOL     OW 2589   2.309   7.763   2.838 -0.2202 -0.4412 -0.3703
  383SOL    HW1 2590   2.276   7.681   2.875  2.7322 -1.5089  0.1434
  383SOL    HW2 2591   2.394   7.740   2.801 -0.3935  1.9108 -2.4763
  384SOL     OW 2592   3.091   0.148   1.096 -0.2936 -0.0796 -0.1054
  384SOL    HW1 2593   3.047   0.223   1.135 -0.2059 -0.8425  1.5372
  384SOL    HW2 2594   3.172   0.138   1.146 -0.0148 -0.9016 -0.6965
  385SOL     OW 2595   0.432   1.929   0.548 -0.7020  0.7635 -0.3233
  385SOL    HW1 2596   0.451   1.964   0.635 -0.5700  0.8309 -0.3796
  385SOL    HW2 2597   0.390   1.844   0.565 -1.0735  0.9710 -0.1867
  386SOL     OW 2598   1.118   2.001   3.840  0.0472 -0.2626 -0.0182
  386SOL    HW1 2599   1.115   2.095   3.822  1.4253  0.3048  2.3568
  386SOL    HW2 2600   1.196   1.989   3.895 -0.5448 -2.6714  0.4185
  387SOL     OW 2601   1.292   7.977   2.301 -0.1170  0.0068  0.5577
  387SOL    HW1 2602   1.359   7.908   2.304  1.7420  1.6243 -0.9814
  387SOL    HW2 2603   1.274   7.989   2.208 -0.4179  1.5734  0.7905
  388SOL     OW 2604   2.294   2.021   2.045 -0.6048  0.1689 -0.0011
  388SOL    HW1 2605   2.264   2.104   2.081  0.2058 -0.1148  1.3959
  388SOL    HW2 2606   2.298   1.962   2.120  1.4681 -0.3541 -0.4613
  389SOL     OW 2607   1.818   0.324   3.088  0.3400 -0.1557  0.8351
  389SOL    HW1 2608   1.843   0.338   2.997  0.9751 -1.1149  0.8439
  389SOL    HW2 2609   1.894   0.355   3.138 -0.7379  2.1344  1.1606
  390SOL     OW 2610   3.178   1.059   3.551  0.2595 -0.3642 -0.4674
  390SOL    HW1 2611   3.156   1.119   3.622 -1.0747 -1.4699  0.0899
  390SOL    HW2 2612   3.180   0.973   3.591 -1.5528 -1.1584 -1.9106
  391SOL     OW 2613   7.286   3.077   1.840  0.3504 -0.5540 -0.1313
  391SOL    HW1 2614   7.342   3.032   1.903  1.0930 -0.0173 -0.3986
  391SOL    HW2 2615   7.296   3.027   1.758  2.1233  0.7516 -0.7635
  392SOL     OW 2616   0.764   2.787   3.910 -0.4956  0.3529  0.2386
  392SOL    HW1 2617   0.827   2.736   3.961 -0.0216  0.4773 -0.2118
  392SOL    HW2 2618   0.686   2.732   3.906 -0.0888 -0.2199  0.0003
  393SOL     OW 2619   0.609   2.460   3.677  0.0781 -0.1084  0.0458
  393SOL    HW1 2620   0.610   2.538   3.622  1.3056  0.2598  0.5375
  393SOL    HW2 2621   0.592   2.388   3.617  0.2331  0.4082 -0.6282
  394SOL     OW 2622   7.748   3.168   3.713 -0.0307  0.0862 -0.1103
  394SOL    HW1 2623   7.805   3.198   3.642 -1.3560 -0.5128 -1.4856
  394SOL    HW2 2624   7.762   3.232   3.783  0.8296  1.0868 -1.1451
  395SOL     OW 2625   1.083   0.111   2.436 -0.1778  0.2623 -0.3782
  395SOL    HW1 2626   1.047   0.096   2.523  1.2592  0.7627  0.3194
  395SOL    HW2 2627   1.130   0.030   2.415  0.5007  0.6065 -0.1770
  396SOL     OW 2628   0.287   2.055   4.388 -0.0117 -0.4675  0.0648
  396SOL    HW1 2629   0.382   2.067   4.396 -0.1974  2.0725 -0.7176
  396SOL    HW2 2630   0.251   2.106   4.460 -0.8193 -3.2488  1.7832
  397SOL     OW 2631   0.987   2.059   3.406 -0.4591 -0.5589 -0.3176
  397SOL    HW1 2632   0.988   2.155   3.396  1.7694 -0.2555  1.8806
  397SOL    HW2 2633   0.896   2.038   3.423 -1.0501  1.1237 -1.1080
  398SOL     OW 2634   0.829   0.692   3.947  0.1880 -0.7249  0.7076
  398SOL    HW1 2635   0.821   0.781   3.982 -0.6115 -1.1123  1.5540
  398SOL    HW2 2636   0.915   0.691   3.904 -0.0716  0.6504  0.0877
  399SOL     OW 2637   1.807   1.278   3.091  0.1478 -0.1074  0.1626
  399SOL    HW1 2638   1.713   1.276   3.109  0.0967  0.1534 -0.0700
  399SOL    HW2 2639   1.822   1.204   3.031  0.1452 -0.3445  0.4552
  400SOL     OW 2640   0.975   0.807   2.312  0.6747 -0.2750  0.2223
  400SOL    HW1 2641   0.924   0.827   2.234  2.9193 -0.1083 -1.2739
  400SOL    HW2 2642   0.974   0.712   2.318  0.2254 -0.2759  0.2294
  401SOL     OW 2643   2.845   7.157   3.128  0.4965  0.5190  0.4296
  401SOL    HW1 2644   2.800   7.150   3.044  0.7545 -1.1792  0.4070
  401SOL    HW2 2645   2.875   7.069   3.148  2.5801  1.3105  1.1364
  402SOL     OW 2646   1.911   3.586   3.388 -0.1989 -0.3594 -0.4200
  402SOL    HW1 2647   1.909   3.609   3.481 -2.8861 -0.1117 -0.4702
  402SOL    HW2 2648   1.847   3.515   3.380  0.0310 -0.4052 -2.0870
  403SOL     OW 2649   0.204   7.347   3.119 -0.2039  0.1778 -0.1385
  403SOL    HW1 2650   0.210   7.442   3.119 -1.3969  0.2840  1.1153
  403SOL    HW2 2651   0.142   7.326   3.050 -3.2621  0.6624  2.2435
  404SOL     OW 2652   0.419   1.211   5.187 -0.1328  0.4072 -0.1588
  404SOL    HW1 2653   0.505   1.194   5.149 -0.8605 -1.8670 -0.9339
  404SOL    HW2 2654   0.360   1.220   5.112 -0.3796  3.8179  0.2792
  405SOL     OW 2655   1.688   7.543   2.162  0.2684  0.5907 -0.1092
  405SOL    HW1 2656   1.728   7.467   2.205 -0.6440 -0.0905 -0.4358
  405SOL    HW2 2657   1.595   7.532   2.177  0.1519  1.9177  0.2485
  406SOL     OW 2658   2.048   0.646   3.478  0.6149 -0.2641  0.2183
  406SOL    HW1 2659   2.059   0.551   3.479  1.6645 -0.2000 -1.8024
  406SOL    HW2 2660   2.135   0.681   3.498  0.4962  0.2699 -0.1818
  407SOL     OW 2661   2.502   2.125   2.562 -0.1534 -0.8044  0.1673
  407SOL    HW1 2662   2.413   2.127   2.595 -0.2531 -0.1779 -0.1224
  407SOL    HW2 2663   2.524   2.032   2.557 -1.3375 -1.0412 -1.1945
  408SOL     OW 2664   7.038   2.354   1.456 -0.1687  0.4994  0.3483
  408SOL    HW1 2665   7.104   2.284   1.459  0.2200  0.8560  3.1689
  408SOL    HW2 2666   6.997   2.344   1.371  0.1070 -2.9476  0.4493
  409SOL     OW 2667   6.614   2.355   2.583  0.3252  0.4562 -0.6426
  409SOL    HW1 2668   6.615   2.395   2.496 -0.2924 -1.5907 -1.6669
  409SOL    HW2 2669   6.680   2.286   2.578  2.0430  1.8362  1.3702
  410SOL     OW 2670   2.642   1.203   2.437  0.1554 -0.4087  0.4149
  410SOL    HW1 2671   2.609   1.131   2.491 -2.4607 -1.5467 -2.3732
  410SOL    HW2 2672   2.717   1.166   2.391  0.4697 -0.4657  0.9725
  411SOL     OW 2673   0.613   2.834   4.789  0.1866 -0.1861 -0.0679
  411SOL    HW1 2674   0.609   2.846   4.694  1.3229 -1.9335 -0.3812
  411SOL    HW2 2675   0.706   2.841   4.810 -0.0932  0.5942  0.9980
  412SOL     OW 2676   7.991   4.008   3.340  0.3267 -0.1562  0.2891
  412SOL    HW1 2677   7.959   4.085   3.387  0.2970 -0.6174  1.0411
  412SOL    HW2 2678   7.928   3.940   3.360 -0.2856 -0.0921 -1.3244
  413SOL     OW 2679   1.472   1.508   2.181  0.2670  0.0943 -0.7417
  413SOL    HW1 2680   1.524   1.428   2.185 -1.4389 -1.0227  1.4626
  413SOL    HW2 2681   1.519   1.570   2.237  0.9050  0.1900 -1.3822
  414SOL     OW 2682   0.429   0.333   0.504 -0.5421  0.8031 -0.2185
  414SOL    HW1 2683   0.337   0.357   0.515 -1.8334 -3.2800 -0.7432
  414SOL    HW2 2684   0.433   0.292   0.418  1.3343 -0.7463  0.5514
  415SOL     OW 2685   2.737   1.496   3.305  0.3107 -0.6328 -0.1554
  415SOL    HW1 2686   2.677   1.505   3.231  0.5564 -1.8254 -0.5197
  415SOL    HW2 2687   2.824   1.507   3.267  0.3360  2.1216  0.5414
  416SOL     OW 2688   2.997   0.563   4.223 -0.0016 -0.0086  0.1216
  416SOL    HW1 2689   2.923   0.539   4.166 -0.7431  1.9213  0.1948
  416SOL    HW2 2690   2.964   0.553   4.312 -0.2392  0.9658  0.1544
  417SOL     OW 2691   1.452   7.008   3.683  0.2653  0.6657  0.3212
  417SOL    HW1 2692   1.498   7.092   3.685  0.5823  0.5178 -0.4625
  417SOL    HW2 2693   1.477   6.965   3.765  0.8771  0.9371  0.2826
  418SOL     OW 2694   6.969   2.220   1.728  0.2913 -0.6600 -0.1374
  418SOL    HW1 2695   7.020   2.174   1.661  0.0252 -0.8603 -0.2018
  418SOL    HW2 2696   7.025   2.293   1.754  0.8508 -1.2023  0.1970
  419SOL     OW 2697   0.705   1.717   2.130 -0.2741  0.9604  0.2834
  419SOL    HW1 2698   0.759   1.726   2.051 -0.4140  0.9028  0.1807
  419SOL    HW2 2699   0.706   1.624   2.149 -1.5226  0.7690 -0.5548
  420SOL     OW 2700   0.088   7.564   0.873  0.1435  0.0000 -0.2629
  420SOL    HW1 2701   0.152   7.626   0.906 -0.0878 -0.0523  0.2921
  420SOL    HW2 2702   0.077   7.500   0.943 -0.6770  0.1346 -0.2600
  421SOL     OW 2703   2.806   0.059   1.726  0.1864  0.2349  0.3148
  421SOL    HW1 2704   2.803  -0.035   1.706  0.0507  0.5044 -1.0530
  421SOL    HW2 2705   2.862   0.096   1.658 -0.5575  1.2716  0.2417
  422SOL     OW 2706   7.922   0.714   2.625  0.0800 -0.3536 -0.3424
  422SOL    HW1 2707   7.863   0.786   2.651 -1.0792 -1.5497  0.4731
  422SOL    HW2 2708   7.894   0.692   2.536  0.4929  0.2465 -0.6259
  423SOL     OW 2709   2.165   3.490   3.529 -0.2885 -0.2764 -0.1297
  423SOL    HW1 2710   2.092   3.483   3.467 -0.0581  0.5341 -0.5186
  423SOL    HW2 2711   2.227   3.423   3.501  1.0854  1.8352 -2.6058
  424SOL     OW 2712   1.730   0.903   3.081  0.0188  0.1939 -0.5551
  424SOL    HW1 2713   1.687   0.951   3.153 -1.5406 -1.3210 -0.4140
  424SOL    HW2 2714   1.813   0.947   3.070  0.0688  0.8529  1.8262
  425SOL     OW 2715   1.952   1.005   3.839 -0.3306 -0.7011 -0.0390
  425SOL    HW1 2716   1.960   0.930   3.781  1.3140  0.5434 -1.5125
  425SOL    HW2 2717   1.938   1.079   3.781  0.8357  0.5238  1.1593
  426SOL     OW 2718   0.047   2.322   3.444 -0.0678  0.0671  0.1198
  426SOL    HW1 2719   0.026   2.251   3.504  0.4533 -0.4017 -0.2440
  426SOL    HW2 2720   0.081   2.279   3.366  0.6283  0.7241  0.0423
  427SOL     OW 2721   0.686   1.927   5.034  0.4101 -0.3324  0.6600
  427SOL    HW1 2722   0.694   2.023   5.039  0.8081  0.1732 -4.4361
  427SOL    HW2 2723   0.774   1.896   5.013 -0.2466 -1.4459 -0.5760
  428SOL     OW 2724   5.442   1.954   2.356  0.4267 -0.3580 -0.1851
  428SOL    HW1 2725   5.389   1.991   2.426 -1.2539 -1.4649 -0.8079
  428SOL    HW2 2726   5.525   2.001   2.361 -0.3686  0.9774  1.2538
  429SOL     OW 2727   0.899   0.705   3.436  0.0081 -0.4309  0.5124
  429SOL    HW1 2728   0.948   0.780   3.471 -0.2194 -0.5357  1.0659
  429SOL    HW2 2729   0.916   0.707   3.342 -0.9413  1.0338  0.3320
  430SOL     OW 2730   1.753   7.680   3.810 -0.1065  0.0594 -0.2435
  430SOL    HW1 2731   1.776   7.683   3.903 -1.6118  1.1272  0.1366
  430SOL    HW2 2732   1.691   7.752   3.799 -0.2014 -0.2682 -2.0125
  431SOL     OW 2733   1.454   6.497   2.535 -0.7579 -0.2489  1.4709
  431SOL    HW1 2734   1.404   6.419   2.562 -2.4702  0.8581  1.6518
  431SOL    HW2 2735   1.407   6.570   2.574 -0.3229  1.0347 -0.2865
  432SOL     OW 2736   1.345   0.757   3.397 -0.0412 -0.3713  0.4985
  432SOL    HW1 2737   1.253   0.763   3.424 -0.9940  0.8852 -2.6409
  432SOL    HW2 2738   1.357   0.665   3.373 -0.6418 -0.4283  0.3912
  433SOL     OW 2739   0.138   6.738   4.430  0.2591 -0.0232 -0.1205
  433SOL    HW1 2740   0.181   6.661   4.392  0.7477  0.8540 -1.4146
  433SOL    HW2 2741   0.045   6.726   4.408 -0.1313 -1.5544  2.0454
  434SOL     OW 2742   0.139   3.077   1.772  1.0133 -0.1147 -0.1055
  434SOL    HW1 2743   0.098   3.047   1.691  0.3627  0.0044  0.1819
  434SOL    HW2 2744   0.069   3.078   1.836  0.6525  3.3219 -0.3981
  435SOL     OW 2745   0.129   0.485   1.905 -0.3787 -0.7690 -0.3909
  435SOL    HW1 2746   0.181   0.465   1.828  2.4136  0.7024  0.9438
  435SOL    HW2 2747   0.189   0.472   1.979 -2.4456 -0.5954  1.4355
  436SOL     OW 2748   3.988   0.685   3.282 -0.0367  0.2419  0.7779
  436SOL    HW1 2749   4.044   0.632   3.339 -1.0442 -1.5170  0.1838
  436SOL    HW2 2750   4.047   0.751   3.246  1.2828 -0.5222  1.4630
  437SOL     OW 2751   0.932   0.484   5.346  0.2914  0.5355 -0.5835
  437SOL    HW1 2752   0.866   0.524   5.290 -0.0092 -0.3431 -0.8714
  437SOL    HW2 2753   0.985   0.430   5.286  0.8820  0.7339 -0.2546
  438SOL     OW 2754   2.117   1.969   3.923 -0.4015  0.5610 -0.0780
  438SOL    HW1 2755   2.097   1.977   4.017 -0.9876  1.7406 -0.2810
  438SOL    HW2 2756   2.213   1.969   3.920 -0.3731  0.2211  0.5397
  439SOL     OW 2757   0.395   2.700   1.761 -0.7443  0.1269 -0.2740
  439SOL    HW1 2758   0.479   2.725   1.724 -1.6121  1.7877 -1.2235
  439SOL    HW2 2759   0.330   2.737   1.700 -2.1643 -1.3606  0.2665
  440SOL     OW 2760   0.326   2.300   4.596 -0.1218 -0.2166 -0.2031
  440SOL    HW1 2761   0.391   2.239   4.562 -1.7084 -1.1477 -1.7432
  440SOL    HW2 2762   0.257   2.244   4.632 -0.7299  0.7034  0.0951
  441SOL     OW 2763   2.451   0.107   4.176  0.3079  0.0064 -0.2100
  441SOL    HW1 2764   2.405   0.072   4.252  0.1452  0.8895  0.1148
  441SOL    HW2 2765   2.423   0.052   4.103 -0.7783  0.1226  0.0982
  442SOL     OW 2766   1.486   1.885   3.413  0.1083 -0.2336 -0.2329
  442SOL    HW1 2767   1.421   1.955   3.421 -1.2675 -1.5248  0.3738
  442SOL    HW2 2768   1.524   1.879   3.501  0.7439  0.2178 -0.4716
  443SOL     OW 2769   2.536   2.461   3.644  0.1305  0.0314 -0.3783
  443SOL    HW1 2770   2.623   2.491   3.670  0.6984 -2.4617  0.9834
  443SOL    HW2 2771   2.481   2.539   3.648  1.4817  1.0024  2.7951
  444SOL     OW 2772   1.976   1.594   3.335 -0.1598 -0.4538  0.1434
  444SOL    HW1 2773   1.990   1.537   3.259 -2.0125 -2.3227  1.0931
  444SOL    HW2 2774   1.884   1.580   3.358 -0.3996  2.1989  1.0824
  445SOL     OW 2775   7.114   2.012   2.640 -0.6735  0.5066 -0.2650
  445SOL    HW1 2776   7.044   1.960   2.679 -0.4613  1.0106  0.8319
  445SOL    HW2 2777   7.178   2.023   2.710 -0.0311  1.0054 -0.9144
  446SOL     OW 2778   1.939   1.851   2.821  0.4551 -0.0021 -0.2697
  446SOL    HW1 2779   1.996   1.775   2.833  1.3734  0.0456 -3.4841
  446SOL    HW2 2780   1.978   1.899   2.748 -3.6596  0.0298 -2.7535
  447SOL     OW 2781   1.681   0.649   2.747  0.1255 -0.2780  0.3469
  447SOL    HW1 2782   1.620   0.722   2.745 -0.5368 -0.8315  0.2010
  447SOL    HW2 2783   1.697   0.634   2.840 -1.5118 -1.3947  0.4863
  448SOL     OW 2784   0.272   7.760  12.140  0.5109  0.3789 -0.3279
  448SOL    HW1 2785   0.279   7.676  12.094  2.8588  0.2812  0.0753
  448SOL    HW2 2786   0.362   7.790  12.149 -0.1546  2.1718  1.0027
  449SOL     OW 2787   3.267   1.520   3.853  0.1317 -0.1112 -0.1600
  449SOL    HW1 2788   3.251   1.573   3.775  0.3015 -0.5230 -0.4815
  449SOL    HW2 2789   3.180   1.493   3.882  0.1042 -0.4850 -0.5828
  450SOL     OW 2790   7.801   1.119   3.936 -1.1758 -0.2507  0.0002
  450SOL    HW1 2791   7.801   1.035   3.890  1.1606  0.0838 -0.7413
  450SOL    HW2 2792   7.786   1.095   4.028 -1.0450 -1.4278 -0.2606
  451SOL     OW 2793   1.940   2.259   1.417  0.1308 -0.0140  0.1917
  451SOL    HW1 2794   1.859   2.300   1.448  0.4151  0.0918  0.8002
  451SOL    HW2 2795   1.992   2.331   1.382  0.1000 -0.0373  0.0969
  452SOL     OW 2796   7.523   2.662   3.836  0.2535  0.3142  0.3439
  452SOL    HW1 2797   7.503   2.755   3.847 -0.6390  0.2077 -0.2996
  452SOL    HW2 2798   7.507   2.645   3.743 -0.7529 -0.7465  0.6887
  453SOL     OW 2799   3.103   7.426   2.740 -0.0498 -0.0332 -0.8350
  453SOL    HW1 2800   3.166   7.360   2.713 -0.0606 -0.3948 -0.0102
  453SOL    HW2 2801   3.027   7.377   2.769  0.3796  0.2453  0.9197
  454SOL     OW 2802   7.975   0.177   1.846  0.5159 -0.1295  0.0279
  454SOL    HW1 2803   7.969   0.256   1.899  0.6913 -0.8491  1.1735
  454SOL    HW2 2804   7.947   0.203   1.758 -2.9464  0.4231  1.1564
  455SOL     OW 2805   2.763   1.363   2.146 -0.2372 -0.3944 -0.5240
  455SOL    HW1 2806   2.725   1.436   2.097 -0.7068 -0.2743 -0.0028
  455SOL    HW2 2807   2.837   1.334   2.094 -1.1307 -0.7194 -1.6408
  456SOL     OW 2808   1.719   1.538   3.401 -0.1116 -0.7028 -0.1544
  456SOL    HW1 2809   1.655   1.608   3.389 -0.2760 -1.0315 -1.3199
  456SOL    HW2 2810   1.705   1.480   3.327  0.8674 -1.3167  0.1209
  457SOL     OW 2811   7.791   1.425   1.988  0.1522  0.1620 -0.1502
  457SOL    HW1 2812   7.880   1.393   1.996  0.4583  1.0097 -0.0735
  457SOL    HW2 2813   7.779   1.440   1.894 -0.2937 -0.9983 -0.2919
  458SOL     OW 2814   1.350   1.622   3.959  0.5095 -0.1324 -0.3311
  458SOL    HW1 2815   1.409   1.660   4.023 -1.0966  0.2606  0.9674
  458SOL    HW2 2816   1.406   1.564   3.906  2.2565  1.1520  0.0369
  459SOL     OW 2817   0.991   0.096   1.932  0.0109  0.2744 -0.5382
  459SOL    HW1 2818   0.992   0.056   2.019 -2.0190  0.2522 -0.4879
  459SOL    HW2 2819   0.939   0.037   1.878 -3.2370  2.7775 -0.4207
  460SOL     OW 2820   7.607   1.821   2.343 -0.1872 -0.2480  0.2519
  460SOL    HW1 2821   7.640   1.856   2.427 -0.2219  0.2455  0.0648
  460SOL    HW2 2822   7.590   1.899   2.290  0.4405 -0.5747 -0.4475
  461SOL     OW 2823   7.341   3.929   3.424 -0.1487  0.0668 -0.3019
  461SOL    HW1 2824   7.290   3.860   3.464  1.4652  0.4570  2.7768
  461SOL    HW2 2825   7.305   4.010   3.460  0.0838  0.6238 -1.2691
  462SOL     OW 2826   1.171   0.447   0.692  0.2631  0.2139  0.1063
  462SOL    HW1 2827   1.224   0.376   0.727  0.9538  0.8792  0.4500
  462SOL    HW2 2828   1.081   0.415   0.696  0.7148 -1.4081 -1.6373
  463SOL     OW 2829   2.200   1.167   3.045  0.6661 -0.3856 -0.3060
  463SOL    HW1 2830   2.127   1.105   3.044  1.0655 -0.9250 -2.7967
  463SOL    HW2 2831   2.260   1.135   2.977  0.9275  2.6312 -1.6615
  464SOL     OW 2832   1.278   7.500   3.527  0.2855  0.6400  0.1474
  464SOL    HW1 2833   1.215   7.562   3.563 -0.5752 -0.8567  1.3577
  464SOL    HW2 2834   1.362   7.527   3.564  0.3966  2.5451 -1.3390
  465SOL     OW 2835   0.817   2.158   2.309  0.0756 -0.8031  0.1603
  465SOL    HW1 2836   0.828   2.090   2.376 -0.5079 -0.1525  0.9390
  465SOL    HW2 2837   0.906   2.193   2.297 -0.2460  1.6296  3.4099
  466SOL     OW 2838   1.816   2.574   2.893 -0.2601  0.4176  0.0330
  466SOL    HW1 2839   1.908   2.548   2.901  0.0277  1.9004  2.2488
  466SOL    HW2 2840   1.814   2.627   2.813  0.7636  0.1837 -0.1685
  467SOL     OW 2841   0.941   1.605   3.644  0.1626 -0.2335 -0.1472
  467SOL    HW1 2842   0.969   1.690   3.612 -3.1141  1.9042  1.9947
  467SOL    HW2 2843   0.994   1.590   3.722  1.7213 -0.9248 -1.2978
  468SOL     OW 2844   7.531   2.299   4.968 -0.0040 -0.0361 -0.1280
  468SOL    HW1 2845   7.559   2.332   4.882  0.1945 -1.7482 -0.7500
  468SOL    HW2 2846   7.603   2.243   4.997  0.4344  1.3839  1.7046
  469SOL     OW 2847   7.989   0.869   4.672  0.5592 -0.4417  0.7324
  469SOL    HW1 2848   8.078   0.836   4.664  0.4221 -0.5690 -0.5612
  469SOL    HW2 2849   7.934   0.792   4.655  0.2241 -0.0419 -0.0455
  470SOL     OW 2850   0.343   0.964   5.753  0.1845  0.1857  0.5078
  470SOL    HW1 2851   0.351   0.871   5.731 -1.3783  0.5690 -1.9517
  470SOL    HW2 2852   0.430   0.987   5.788  1.4893 -1.5626 -1.3445
  471SOL     OW 2853   1.335   2.987   4.345 -0.0597  0.0736  0.2284
  471SOL    HW1 2854   1.344   2.942   4.429 -0.3981  0.1132  0.2847
  471SOL    HW2 2855   1.260   2.946   4.302  0.6876 -0.6035 -0.4730
  472SOL     OW 2856   1.218   0.869   5.475 -0.0601  0.2688 -0.0698
  472SOL    HW1 2857   1.171   0.853   5.393  1.7116  1.1708 -1.3261
  472SOL    HW2 2858   1.234   0.782   5.511 -2.6552 -0.0789  0.4607
  473SOL     OW 2859   2.810   0.444   4.055  0.2904 -0.2828  0.0755
  473SOL    HW1 2860   2.791   0.458   3.962  2.6228  0.4631 -0.3536
  473SOL    HW2 2861   2.725   0.451   4.098 -0.7400  0.1786 -1.8987
  474SOL     OW 2862   7.415   1.089   5.690  0.5477 -0.1106  0.6399
  474SOL    HW1 2863   7.409   1.120   5.781 -2.2244  1.8535 -0.0707
  474SOL    HW2 2864   7.330   1.047   5.673  1.3407 -1.2288 -0.8279
  475SOL     OW 2865   2.293   0.927   6.288 -0.2216 -0.3312 -0.0748
  475SOL    HW1 2866   2.266   0.990   6.221  1.2065  0.0350 -0.3320
  475SOL    HW2 2867   2.223   0.930   6.353 -0.9015  0.4045 -0.8192
  476SOL     OW 2868   1.215   0.625   5.086  0.3574  0.2416 -0.0129
  476SOL    HW1 2869   1.290   0.574   5.117 -1.1743 -1.6595  0.7846
  476SOL    HW2 2870   1.192   0.681   5.160 -0.3902 -0.8475  0.5965
  477SOL     OW 2871   6.668   0.016   5.752  0.5814 -0.3178  0.6206
  477SOL    HW1 2872   6.596  -0.030   5.795 -0.5360  0.5685 -0.2478
  477SOL    HW2 2873   6.636   0.105   5.739  1.2202 -0.3045 -1.1842
  478SOL     OW 2874   7.985   2.212   5.825 -0.1792  0.4736 -0.0832
  478SOL    HW1 2875   7.939   2.250   5.900 -0.9285  0.5334 -0.5510
  478SOL    HW2 2876   7.914   2.187   5.765  0.0682 -3.5876  1.0253
  479SOL     OW 2877   2.172   2.002   5.889  0.0696 -0.4606 -0.0443
  479SOL    HW1 2878   2.196   2.094   5.877 -0.9150 -0.3062 -0.9712
  479SOL    HW2 2879   2.093   2.005   5.943  0.2197 -0.7825  0.1946
  480SOL     OW 2880   0.818   7.866   5.424 -0.0545 -0.0757  0.2443
  480SOL    HW1 2881   0.826   7.899   5.513  0.2996  0.1461  0.1323
  480SOL    HW2 2882   0.724   7.867   5.406  0.0069  2.8754 -0.4814
  481SOL     OW 2883   1.425   7.741   4.781  0.3435 -0.0637 -0.3620
  481SOL    HW1 2884   1.368   7.683   4.831  0.3825  0.6526  0.5603
  481SOL    HW2 2885   1.437   7.817   4.839 -0.0769  1.0566 -1.7076
  482SOL     OW 2886   1.188   0.277   5.623  0.0236 -0.2445  0.3136
  482SOL    HW1 2887   1.097   0.266   5.650 -0.4964  0.0376 -1.2403
  482SOL    HW2 2888   1.238   0.268   5.704 -1.4322  0.3420  1.3222
  483SOL     OW 2889   0.073   0.308   5.540 -0.5661  0.5887  0.1961
  483SOL    HW1 2890   0.104   0.232   5.491 -0.6978  1.0401 -0.6106
  483SOL    HW2 2891  -0.022   0.297   5.544 -0.6106  0.8287 -0.1372
  484SOL     OW 2892   2.014   2.081   3.643  0.1871 -0.5822  0.2442
  484SOL    HW1 2893   1.919   2.090   3.645  0.0068 -1.7007 -1.4207
  484SOL    HW2 2894   2.036   2.040   3.727 -0.7728 -0.1830  0.7015
  485SOL     OW 2895   1.909   3.016   5.064  0.4240 -0.0835 -0.2234
  485SOL    HW1 2896   1.837   2.954   5.066 -0.4841  0.9486 -0.0776
  485SOL    HW2 2897   1.921   3.043   5.155  1.9167 -1.2478 -0.0335
  486SOL     OW 2898   1.699   1.304   5.633  0.1830  0.4537 -0.2395
  486SOL    HW1 2899   1.628   1.364   5.656 -0.7450  0.0033 -1.7941
  486SOL    HW2 2900   1.682   1.226   5.686 -0.4407  0.3731 -0.5535
  487SOL     OW 2901   2.706   1.130   4.076  0.0994  0.0462  0.1029
  487SOL    HW1 2902   2.700   1.045   4.120  1.1369 -0.0282  0.1276
  487SOL    HW2 2903   2.755   1.185   4.137  0.0170  0.4627 -0.2040
  488SOL     OW 2904   1.430   6.611   3.785 -0.1904  0.0764  0.1911
  488SOL    HW1 2905   1.344   6.599   3.747 -1.4135  0.9309  2.5108
  488SOL    HW2 2906   1.429   6.558   3.865  1.4128  0.1434  0.2940
  489SOL     OW 2907   7.791   2.008   3.567 -0.0250 -0.1812  0.2225
  489SOL    HW1 2908   7.709   2.029   3.612 -0.2307  1.7435 -0.9333
  489SOL    HW2 2909   7.855   2.068   3.606  0.1233  0.4600 -0.9756
  490SOL     OW 2910   2.542   2.166   3.702 -0.2622  0.3245  0.7209
  490SOL    HW1 2911   2.516   2.249   3.663 -1.1813 -1.1579 -2.0458
  490SOL    HW2 2912   2.586   2.119   3.632  1.6614 -0.9687  2.6704
  491SOL     OW 2913   7.484   1.810   3.903  0.1644  0.0339 -0.4080
  491SOL    HW1 2914   7.543   1.826   3.978  0.1871 -0.2485 -0.3656
  491SOL    HW2 2915   7.396   1.824   3.938  0.2543  2.2404 -0.8981
  492SOL     OW 2916   3.443   0.763   4.265  0.1644  0.4532  0.2096
  492SOL    HW1 2917   3.407   0.686   4.220  0.7956  0.8373 -0.9795
  492SOL    HW2 2918   3.516   0.791   4.211  0.3947  1.4787  1.0142
  493SOL     OW 2919   1.663   0.302   4.689 -0.3288  0.7002 -0.0404
  493SOL    HW1 2920   1.631   0.252   4.764 -1.7865  1.6116 -0.0301
  493SOL    HW2 2921   1.750   0.265   4.671 -1.7608 -2.6578 -0.7703
  494SOL     OW 2922   0.725   0.323   5.175  0.2748  0.4837 -0.4924
  494SOL    HW1 2923   0.815   0.334   5.204 -0.6491  0.8495  2.5986
  494SOL    HW2 2924   0.697   0.411   5.148  0.6202  0.5095 -0.7648
  495SOL     OW 2925   7.543   3.600   3.072 -0.6559  0.2115  0.5463
  495SOL    HW1 2926   7.513   3.562   2.989 -1.1118  0.5575  0.5520
  495SOL    HW2 2927   7.510   3.690   3.071  3.8379  2.1704 -1.4120
  496SOL     OW 2928   0.996   7.060   5.202  0.0244  0.1048 -0.4251
  496SOL    HW1 2929   1.073   7.020   5.243 -0.8151 -0.5436  0.5946
  496SOL    HW2 2930   1.031   7.110   5.128  1.0826 -3.0951 -2.2655
  497SOL     OW 2931   1.768   6.112   3.544  0.2949 -0.2119 -0.1595
  497SOL    HW1 2932   1.721   6.130   3.625  1.5814 -0.2922  0.6320
  497SOL    HW2 2933   1.700   6.078   3.484 -0.8240  0.6463  0.5835
  498SOL     OW 2934   0.073   3.129   5.405 -0.2655  0.1868  0.0812
  498SOL    HW1 2935   0.157   3.160   5.437 -0.8404  0.1024  1.7672
  498SOL    HW2 2936   0.087   3.037   5.384  0.7847  0.8595 -2.4896
  499SOL     OW 2937   3.495   7.320   4.538  0.0289 -0.0797 -0.5262
  499SOL    HW1 2938   3.401   7.308   4.530 -0.1058  1.2610 -1.3824
  499SOL    HW2 2939   3.515   7.299   4.630 -1.0225 -0.7661 -0.4463
  500SOL     OW 2940   1.902   2.577   4.283  0.4897  0.4698  0.2110
  500SOL    HW1 2941   1.916   2.655   4.230  2.7134 -0.5167 -0.7722
  500SOL    HW2 2942   1.908   2.608   4.373  4.2276  1.1480 -0.0932
  501SOL     OW 2943   6.311   0.661   6.561  0.3710  0.3016  0.2707
  501SOL    HW1 2944   6.316   0.750   6.525 -0.0503 -0.1049 -0.7990
  501SOL    HW2 2945   6.246   0.668   6.631 -0.3024  0.6393 -0.3831
  502SOL     OW 2946   1.860   3.098   3.294 -0.0629  0.2296  0.0110
  502SOL    HW1 2947   1.774   3.084   3.332  0.3892 -0.8560  0.6816
  502SOL    HW2 2948   1.843   3.142   3.211 -1.2623 -0.0083  0.1211
  503SOL     OW 2949   2.959   2.183   3.545 -0.0993  0.3402  0.6364
  503SOL    HW1 2950   2.994   2.199   3.458 -2.1715  1.1636 -0.1027
  503SOL    HW2 2951   3.036   2.173   3.601  1.2971 -1.4460 -1.4704
  504SOL     OW 2952   0.815   0.057   6.017 -0.3961  0.0356  0.1155
  504SOL    HW1 2953   0.856   0.137   5.986 -1.2355  1.3110  2.1482
  504SOL    HW2 2954   0.721   0.071   6.001 -0.3478 -2.1154 -2.8760
  505SOL     OW 2955   1.520   4.067   4.098 -0.3083  0.1888 -0.2205
  505SOL    HW1 2956   1.541   4.159   4.084 -2.8085  0.6307 -1.6111
  505SOL    HW2 2957   1.549   4.023   4.018  0.2121 -0.1320  0.1356
  506SOL     OW 2958   7.931   0.690   5.868 -0.2109  0.4587  0.7667
  506SOL    HW1 2959   7.962   0.770   5.909 -0.4484  0.2898  1.2841
  506SOL    HW2 2960   7.910   0.632   5.941 -0.4513  0.0822  0.4047
  507SOL     OW 2961   1.210   0.409   5.950  0.0353  0.2071 -0.4706
  507SOL    HW1 2962   1.234   0.446   6.035 -0.0927  2.3233 -1.3014
  507SOL    HW2 2963   1.292   0.373   5.916  0.9980  2.6809 -0.9998
  508SOL     OW 2964   1.376   1.113   4.472 -0.3365 -0.4430  0.4300
  508SOL    HW1 2965   1.412   1.147   4.390  0.5376 -2.7309 -0.2112
  508SOL    HW2 2966   1.452   1.075   4.517 -1.1842 -1.2742  1.2044
  509SOL     OW 2967   0.071   2.162   5.076  0.2148  0.0058  0.4218
  509SOL    HW1 2968   0.056   2.257   5.085  0.8730  0.2907 -1.1384
  509SOL    HW2 2969   0.165   2.152   5.090  0.0390 -0.5436  1.3026
  510SOL     OW 2970   1.149   1.035   4.571  0.1186 -0.5683 -0.1286
  510SOL    HW1 2971   1.227   1.080   4.539 -0.0486 -0.0162  0.2264
  510SOL    HW2 2972   1.150   0.950   4.527  1.5440 -1.0439  0.7692
  511SOL     OW 2973   7.772   1.706   4.445  0.1436 -0.0913  0.4957
  511SOL    HW1 2974   7.857   1.691   4.486 -1.0533 -1.1493  2.7504
  511SOL    HW2 2975   7.781   1.669   4.357  2.1338  0.2540  0.4990
  512SOL     OW 2976   1.090   2.107   4.783  0.0101  0.1911 -0.1346
  512SOL    HW1 2977   1.076   2.014   4.802  0.6537  0.2427  0.6860
  512SOL    HW2 2978   1.017   2.132   4.727 -1.5215 -0.2294  1.5700
  513SOL     OW 2979   1.127   7.512   4.257  0.4895  0.3551 -0.0978
  513SOL    HW1 2980   1.139   7.428   4.213  1.4830  0.4072  0.0382
  513SOL    HW2 2981   1.181   7.573   4.206  0.3871  0.7508  0.2594
  514SOL     OW 2982   2.876   1.645   2.725 -0.1532  0.3994 -0.2512
  514SOL    HW1 2983   2.920   1.714   2.776 -1.3761  1.1348 -0.1403
  514SOL    HW2 2984   2.888   1.671   2.634 -0.0986  0.4380 -0.2330
  515SOL     OW 2985   1.700   0.890   2.476 -0.0973 -0.3261  0.2316
  515SOL    HW1 2986   1.689   0.872   2.569  1.9501  0.9409  0.7768
  515SOL    HW2 2987   1.611   0.889   2.440 -1.1501  1.3651  2.6055
  516SOL     OW 2988   7.391   7.023   6.889  0.4629 -0.4653 -0.5090
  516SOL    HW1 2989   7.460   6.968   6.927  1.5659  0.1936 -1.4618
  516SOL    HW2 2990   7.416   7.032   6.797 -0.5108  0.4004 -0.7051
  517SOL     OW 2991   0.771   2.274   4.160 -0.0733  0.4053 -0.1289
  517SOL    HW1 2992   0.782   2.315   4.074  0.1502  0.4402 -0.0850
  517SOL    HW2 2993   0.682   2.239   4.159  0.0224  0.1668 -0.4770
  518SOL     OW 2994   2.600   1.818   4.287  0.2226 -0.4927 -0.3336
  518SOL    HW1 2995   2.617   1.748   4.224 -1.1568 -0.6905 -0.5172
  518SOL    HW2 2996   2.604   1.775   4.373 -3.0326 -1.4276 -0.5205
  519SOL     OW 2997   1.392   1.992   4.908 -0.4891 -0.3415  0.3414
  519SOL    HW1 2998   1.482   2.023   4.898 -0.1320 -0.9920  1.2929
  519SOL    HW2 2999   1.400   1.916   4.966 -1.2819 -2.3748 -2.0531
  520SOL     OW 3000   0.252   2.225   6.337  0.0714 -0.5255 -0.1716
  520SOL    HW1 3001   0.175   2.251   6.388 -0.8041 -1.9650 -0.6889
  520SOL    HW2 3002   0.251   2.129   6.341  1.1470 -0.5908 -1.2021
  521SOL     OW 3003   1.805   0.775   4.684 -0.4723  0.2305  0.0672
  521SOL    HW1 3004   1.890   0.742   4.656 -0.5868 -0.0009 -0.0092
  521SOL    HW2 3005   1.742   0.714   4.646 -0.7456  1.1080 -0.9413
  522SOL     OW 3006   1.539   1.734   4.145  0.2507 -0.2447 -0.0494
  522SOL    HW1 3007   1.611   1.690   4.191  1.4477  1.8941  0.2609
  522SOL    HW2 3008   1.544   1.825   4.173 -1.0368  0.4863 -1.9412
  523SOL     OW 3009   0.606   0.225   4.933 -0.3440  0.3574  0.5249
  523SOL    HW1 3010   0.522   0.212   4.976 -0.6646  1.3927  0.2250
  523SOL    HW2 3011   0.666   0.249   5.003 -0.7030  1.3308  0.5126
  524SOL     OW 3012   1.695   2.359   3.093 -0.3474  0.3830 -0.1343
  524SOL    HW1 3013   1.656   2.298   3.156  0.2453 -0.1658 -0.2894
  524SOL    HW2 3014   1.774   2.391   3.137  0.3289 -0.3717 -0.7863
  525SOL     OW 3015   6.659   0.557   5.110 -0.6796 -0.3154  0.4569
  525SOL    HW1 3016   6.753   0.541   5.105 -1.0818 -2.7516 -0.4987
  525SOL    HW2 3017   6.646   0.596   5.197  1.4123  2.1224 -0.2117
  526SOL     OW 3018   0.862   1.526   4.484  0.6822  0.3561 -0.9147
  526SOL    HW1 3019   0.862   1.615   4.448  1.5828  1.4853  1.6270
  526SOL    HW2 3020   0.790   1.526   4.546  1.2889 -0.3734 -0.1903
  527SOL     OW 3021   6.743   2.633   1.995  0.2474 -0.2104  0.4016
  527SOL    HW1 3022   6.801   2.694   1.949 -0.3062  0.6695  0.8267
  527SOL    HW2 3023   6.699   2.584   1.925 -0.2395  0.7883 -0.0203
  528SOL     OW 3024   3.668   6.996   3.998 -0.1679 -0.2488 -0.0547
  528SOL    HW1 3025   3.684   6.959   3.911 -1.3492 -0.6679 -0.1126
  528SOL    HW2 3026   3.732   7.067   4.006  0.5387 -0.7750 -0.9075
  529SOL     OW 3027   7.847   2.777   6.840  0.2458  0.3501 -0.0116
  529SOL    HW1 3028   7.820   2.703   6.786  0.8626  0.9998 -1.2616
  529SOL    HW2 3029   7.838   2.746   6.930  1.6927 -1.7015 -0.5067
  530SOL     OW 3030   0.909   1.753   4.330  0.8374  0.0168  0.0009
  530SOL    HW1 3031   0.988   1.750   4.276 -0.5639 -1.7101 -2.1392
  530SOL    HW2 3032   0.861   1.829   4.298  1.2189  0.5437  0.6773
  531SOL     OW 3033   0.241   3.002   3.715  0.1535 -0.2205  0.2767
  531SOL    HW1 3034   0.225   3.073   3.777  0.8619 -0.0199  0.2331
  531SOL    HW2 3035   0.303   2.944   3.760  0.2982 -0.3241 -0.0552
  532SOL     OW 3036   0.380   6.835   5.625  0.0153 -0.2650 -0.2007
  532SOL    HW1 3037   0.416   6.920   5.599 -0.0726 -0.3842 -0.7261
  532SOL    HW2 3038   0.410   6.823   5.715 -0.5198  0.6164  0.1105
  533SOL     OW 3039   1.038   0.619   3.762 -0.3461 -0.0549 -0.0672
  533SOL    HW1 3040   0.982   0.548   3.731 -0.9314  1.1123 -1.8403
  533SOL    HW2 3041   1.057   0.671   3.684 -0.4263  2.0725  1.2336
  534SOL     OW 3042   0.102   1.058   6.683 -0.2121  0.2718 -0.2640
  534SOL    HW1 3043   0.050   0.982   6.711 -0.0554 -0.3223 -1.5369
  534SOL    HW2 3044   0.041   1.110   6.629  0.3349 -0.1513 -1.3128
  535SOL     OW 3045   2.067   2.141   2.940 -0.5704 -0.3069  0.2377
  535SOL    HW1 3046   1.993   2.100   2.896 -1.4177 -0.3394  1.6573
  535SOL    HW2 3047   2.144   2.094   2.906 -1.3929 -2.0244  0.6642
  536SOL     OW 3048   1.069   7.394   6.601  0.1025 -0.2489 -0.2866
  536SOL    HW1 3049   1.027   7.365   6.520 -0.3194  1.8821 -0.9004
  536SOL    HW2 3050   1.026   7.344   6.670 -1.5042 -0.1039 -1.1477
  537SOL     OW 3051   2.545   2.396   4.303 -0.2484  0.5419  0.0755
  537SOL    HW1 3052   2.608   2.466   4.317  0.4741 -0.3012  1.1960
  537SOL    HW2 3053   2.485   2.401   4.377  0.8748 -1.1068  1.1467
  538SOL     OW 3054   0.319   7.956   2.084 -0.5332 -0.4249 -0.1577
  538SOL    HW1 3055   0.413   7.939   2.089 -0.7951 -2.0650 -0.2308
  538SOL    HW2 3056   0.279   7.880   2.126 -1.8519 -0.1826 -0.9374
  539SOL     OW 3057   7.545   6.765   6.698 -0.3697 -0.5054 -0.2229
  539SOL    HW1 3058   7.521   6.675   6.677  1.3463 -1.0142 -0.1456
  539SOL    HW2 3059   7.598   6.758   6.778 -3.0800  0.9518  1.8891
  540SOL     OW 3060   2.918   1.662   3.761 -0.0650  0.1691  0.5665
  540SOL    HW1 3061   2.891   1.629   3.676  0.7619 -0.1132  0.3999
  540SOL    HW2 3062   2.991   1.721   3.742  1.8987 -1.9075  1.2409
  541SOL     OW 3063   0.797   0.986   4.485 -0.0935  0.0209  0.0331
  541SOL    HW1 3064   0.732   0.989   4.555 -0.4768 -0.4867 -0.2988
  541SOL    HW2 3065   0.834   1.075   4.483 -0.5818  0.2348  0.4023
  542SOL     OW 3066   1.713   7.074   3.918  0.6838  0.1077  0.9568
  542SOL    HW1 3067   1.674   6.986   3.914  0.9461  0.0447 -0.7261
  542SOL    HW2 3068   1.649   7.125   3.968 -0.6579 -0.4738 -0.0848
  543SOL     OW 3069   0.150   7.859   6.142  0.8036 -0.4788  0.5521
  543SOL    HW1 3070   0.115   7.806   6.213 -1.3407 -2.9593 -2.0671
  543SOL    HW2 3071   0.080   7.920   6.121  2.1688  1.5707  1.7178
  544SOL     OW 3072   2.326   2.359   4.474  0.1715 -0.0081  1.2330
  544SOL    HW1 3073   2.327   2.264   4.482 -0.7802 -0.0259  1.1808
  544SOL    HW2 3074   2.274   2.389   4.548  0.9920  0.5212  1.6168
  545SOL     OW 3075   2.790   0.733   3.392  0.0010 -0.4813 -0.5012
  545SOL    HW1 3076   2.780   0.662   3.328  2.2320 -0.1112 -1.3461
  545SOL    HW2 3077   2.836   0.802   3.345  0.2211  0.4908  1.0527
  546SOL     OW 3078   1.969   1.676   4.568 -0.5750  0.0402 -0.1121
  546SOL    HW1 3079   1.954   1.724   4.487  1.7563  1.6259  0.2784
  546SOL    HW2 3080   2.030   1.731   4.618 -0.7268 -1.5960  2.0598
  547SOL     OW 3081   1.414   0.511   3.722  0.3190  0.3239 -0.3428
  547SOL    HW1 3082   1.403   0.587   3.780  1.8906  0.2601  0.0739
  547SOL    HW2 3083   1.371   0.537   3.641 -2.5745  0.1625  0.9847
  548SOL     OW 3084   0.405   7.761   4.492 -0.3761 -0.3377  0.4771
  548SOL    HW1 3085   0.498   7.779   4.506 -0.2642 -0.7832  0.3107
  548SOL    HW2 3086   0.382   7.808   4.412  0.7120 -3.4693 -1.8851
  549SOL     OW 3087   1.937   2.785   5.557  0.0736  0.6187  0.0472
  549SOL    HW1 3088   1.990   2.855   5.520 -0.6492  0.0340 -2.2447
  549SOL    HW2 3089   1.907   2.820   5.641  0.0456  2.9204 -0.8401
  550SOL     OW 3090   1.443   0.492   4.882 -0.5176 -0.4155  0.4152
  550SOL    HW1 3091   1.524   0.487   4.933  0.1347 -0.5570 -0.6036
  550SOL    HW2 3092   1.429   0.403   4.850 -0.5333 -0.1863 -0.2261
  551SOL     OW 3093   0.958   7.837   5.735 -0.4587 -0.2026  0.1982
  551SOL    HW1 3094   1.020   7.851   5.663 -2.5574  0.5898 -1.5866
  551SOL    HW2 3095   1.012   7.841   5.814  1.5770  1.7562 -1.1558
  552SOL     OW 3096   2.474   7.920   5.103 -0.1214  0.2154 -0.3432
  552SOL    HW1 3097   2.406   7.957   5.048  0.2831  0.7243 -0.5084
  552SOL    HW2 3098   2.430   7.850   5.152 -0.8848  0.8921 -0.0457
  553SOL     OW 3099   0.548   1.302   4.320 -0.9910  0.0519 -0.2711
  553SOL    HW1 3100   0.632   1.341   4.296 -0.8375  0.1903  0.4648
  553SOL    HW2 3101   0.501   1.372   4.366 -0.6851 -0.6219  1.1242
  554SOL     OW 3102   1.675   0.539   4.554 -0.6722  0.1515  0.2340
  554SOL    HW1 3103   1.723   0.496   4.483  0.6715  1.2324  0.4514
  554SOL    HW2 3104   1.677   0.476   4.626  0.7845  0.3234  0.3654
  555SOL     OW 3105   6.634   3.275   2.934  1.0507  0.1121  0.0451
  555SOL    HW1 3106   6.683   3.217   2.876 -0.8359 -0.1509 -1.3842
  555SOL    HW2 3107   6.554   3.227   2.955  1.4383  0.4090  2.5297
  556SOL     OW 3108   2.362   3.324   4.742 -0.1086 -0.0520  0.1791
  556SOL    HW1 3109   2.458   3.316   4.742  0.0286  0.8423 -1.8652
  556SOL    HW2 3110   2.342   3.367   4.825  1.3059  0.1253  0.4628
  557SOL     OW 3111   1.702   0.329   4.116 -0.1272  0.1950  0.0253
  557SOL    HW1 3112   1.623   0.378   4.091 -0.1130  0.2015 -0.0073
  557SOL    HW2 3113   1.750   0.388   4.174  0.0008  0.3085 -0.1934
  558SOL     OW 3114   0.426   0.831   5.107  0.2719 -0.3245  0.7308
  558SOL    HW1 3115   0.357   0.848   5.172 -1.0896  2.0646 -1.1689
  558SOL    HW2 3116   0.430   0.736   5.101 -0.7335 -0.5967  3.0362
  559SOL     OW 3117   2.964   1.517   4.344  0.0113 -0.1061 -0.6095
  559SOL    HW1 3118   3.049   1.524   4.302  0.9845 -1.9542  0.8773
  559SOL    HW2 3119   2.949   1.602   4.385  0.4462  0.7009 -2.0656
  560SOL     OW 3120   0.359   1.183   4.109 -0.3273  0.5798  0.0878
  560SOL    HW1 3121   0.303   1.258   4.129 -0.7846  0.1053  0.6226
  560SOL    HW2 3122   0.409   1.169   4.189  1.1229  1.4460 -0.6076
  561SOL     OW 3123   3.718   1.217   5.978  0.2164  0.0175  0.0718
  561SOL    HW1 3124   3.750   1.240   5.890  0.5823  0.1048  0.2262
  561SOL    HW2 3125   3.779   1.149   6.008  1.0825  1.1447  0.9172
  562SOL     OW 3126   1.403   0.355   4.313  0.1067  0.0903 -0.0108
  562SOL    HW1 3127   1.390   0.385   4.223 -1.6473 -0.2057  0.1278
  562SOL    HW2 3128   1.450   0.272   4.304 -0.9480 -0.4388 -0.7039
  563SOL     OW 3129   2.113   7.869   3.306 -0.4514  0.2311 -0.5853
  563SOL    HW1 3130   2.093   7.887   3.398  0.8444  1.8649 -0.5883
  563SOL    HW2 3131   2.174   7.796   3.309 -0.1730  0.4788 -0.1286
  564SOL     OW 3132   1.220   0.621   5.767 -0.0593  0.1730 -0.7724
  564SOL    HW1 3133   1.222   0.550   5.832  0.4540  0.6471 -0.2661
  564SOL    HW2 3134   1.138   0.607   5.720 -0.6741  0.0996  0.2895
  565SOL     OW 3135   1.151   1.429   5.583  0.0125 -0.4869 -0.2118
  565SOL    HW1 3136   1.150   1.419   5.487  0.0782  0.7582 -0.3659
  565SOL    HW2 3137   1.152   1.340   5.617 -0.7191 -0.9633 -1.3704
  566SOL     OW 3138   0.022   2.304   5.465  0.1503 -0.0180 -0.2926
  566SOL    HW1 3139   0.114   2.330   5.454  1.2103 -3.1794  0.0415
  566SOL    HW2 3140  -0.006   2.351   5.544  0.4335  3.2866 -1.9883
  567SOL     OW 3141   0.225   2.632   3.893 -0.6333  0.2626 -0.0672
  567SOL    HW1 3142   0.200   2.589   3.812 -1.5562  1.4242 -0.4235
  567SOL    HW2 3143   0.142   2.657   3.934 -0.1638  0.2811  0.9152
  568SOL     OW 3144   0.127   0.540   4.705 -0.4211 -0.1718  0.1996
  568SOL    HW1 3145   0.182   0.618   4.698 -1.4953  0.7216  1.0757
  568SOL    HW2 3146   0.060   0.552   4.637 -1.4888  0.4898  1.3101
  569SOL     OW 3147   2.569   7.421   3.876 -0.5699  0.4961 -0.1851
  569SOL    HW1 3148   2.526   7.355   3.931  1.8132 -1.3990 -0.4060
  569SOL    HW2 3149   2.498   7.462   3.827 -2.1488 -2.6580 -0.7790
  570SOL     OW 3150   1.873   1.374   3.911  0.1998 -0.0921 -0.5927
  570SOL    HW1 3151   1.787   1.385   3.870  0.2687  2.8621 -0.1149
  570SOL    HW2 3152   1.926   1.445   3.876  1.7094 -0.3585  1.0233
  571SOL     OW 3153   0.291   7.853   4.972 -0.0629 -0.0303 -1.0961
  571SOL    HW1 3154   0.372   7.826   4.930  0.3902 -0.7096  0.1544
  571SOL    HW2 3155   0.292   7.948   4.970  2.8946  0.2315  2.6107
  572SOL     OW 3156   1.639   1.318   4.629  0.8973 -1.1550  0.3070
  572SOL    HW1 3157   1.614   1.295   4.540  1.1769  0.5334 -0.2498
  572SOL    HW2 3158   1.721   1.271   4.644  1.8024 -0.0826 -1.0220
  573SOL     OW 3159   1.854   1.889   5.158  0.0641  0.3622 -0.1362
  573SOL    HW1 3160   1.937   1.914   5.198  1.2282 -1.3318 -1.3658
  573SOL    HW2 3161   1.867   1.799   5.130 -1.6772  0.5421 -1.7187
  574SOL     OW 3162   3.025   0.297   4.811 -0.3327  0.5519 -0.5396
  574SOL    HW1 3163   3.092   0.255   4.865 -0.5353  0.5672 -0.2743
  574SOL    HW2 3164   2.969   0.343   4.873 -1.7651 -1.0739 -0.5293
  575SOL     OW 3165   7.634   1.158   3.064  0.2859  0.0791  0.0920
  575SOL    HW1 3166   7.559   1.108   3.097 -0.7839  0.7624 -1.1987
  575SOL    HW2 3167   7.633   1.239   3.114 -1.0254  0.8923 -1.1367
  576SOL     OW 3168   1.125   1.210   5.770 -0.0031  0.1517  0.0161
  576SOL    HW1 3169   1.093   1.287   5.817 -0.2723  0.4259 -0.6017
  576SOL    HW2 3170   1.186   1.169   5.830  1.5094  1.8227 -0.2975
  577SOL     OW 3171   1.666   7.249   5.479  0.3074 -0.3016  0.7171
  577SOL    HW1 3172   1.682   7.265   5.572  1.9639  0.3459  0.3556
  577SOL    HW2 3173   1.655   7.155   5.472 -1.7892 -0.1899  1.8120
  578SOL     OW 3174   1.135   7.577   5.499 -0.3189 -0.0442  0.2734
  578SOL    HW1 3175   1.046   7.581   5.533 -0.2370 -1.0191  0.6364
  578SOL    HW2 3176   1.189   7.557   5.576  0.1785  0.2627  0.0074
  579SOL     OW 3177   2.571   7.997   4.415  1.0971  0.8617 -0.0673
  579SOL    HW1 3178   2.488   8.033   4.444  1.9204  1.4482  1.7200
  579SOL    HW2 3179   2.553   7.903   4.403 -0.1189  1.1873 -1.0699
  580SOL     OW 3180   7.971   0.235   6.287 -0.6260 -0.4019  0.0309
  580SOL    HW1 3181   8.039   0.287   6.244 -2.1155 -0.0812 -2.0728
  580SOL    HW2 3182   7.906   0.300   6.315 -0.8336 -0.8434  0.5940
  581SOL     OW 3183   1.696   1.846   4.796  0.6259  0.6266  0.0047
  581SOL    HW1 3184   1.666   1.781   4.733 -2.5516 -0.1459  2.0909
  581SOL    HW2 3185   1.706   1.797   4.878  0.2246  2.3709  1.1493
  582SOL     OW 3186   2.754   0.127   2.946 -0.1050  0.5179  0.6606
  582SOL    HW1 3187   2.812   0.052   2.935  1.3544  1.7287 -0.4127
  582SOL    HW2 3188   2.808   0.203   2.923 -2.2286  1.7032 -0.7901
  583SOL     OW 3189   7.538   2.029   3.679 -0.5008 -0.2477  0.5465
  583SOL    HW1 3190   7.511   1.966   3.746 -0.1553 -0.8956  0.0885
  583SOL    HW2 3191   7.543   2.113   3.725  3.1386 -1.2088  2.2675
  584SOL     OW 3192   7.769   1.412   3.982 -0.4486  0.2864 -0.3469
  584SOL    HW1 3193   7.786   1.318   3.985 -0.7441  0.2442  0.0488
  584SOL    HW2 3194   7.674   1.419   3.990 -0.5909  0.5478 -1.8551
  585SOL     OW 3195   1.149   0.435   2.563 -0.0694 -0.1393  0.0808
  585SOL    HW1 3196   1.149   0.371   2.635 -0.1405 -0.5296 -0.2601
  585SOL    HW2 3197   1.129   0.518   2.605  0.2467 -0.3041  0.5638
  586SOL     OW 3198   2.605   1.078   5.634 -0.2687  0.3259 -0.1308
  586SOL    HW1 3199   2.565   1.164   5.619 -2.7296 -0.8428 -0.7947
  586SOL    HW2 3200   2.639   1.053   5.548 -1.8382 -0.3809 -0.5950
  587SOL     OW 3201   0.230   0.115   4.908 -0.4974  0.0512 -0.5003
  587SOL    HW1 3202   0.270   0.177   4.847  2.9883 -2.2972 -0.9000
  587SOL    HW2 3203   0.144   0.097   4.870 -0.7512  2.8600 -1.5481
  588SOL     OW 3204   1.002   0.282   6.074  0.3445  0.2144 -0.4678
  588SOL    HW1 3205   1.086   0.320   6.046 -0.2337  2.4632  0.6509
  588SOL    HW2 3206   1.023   0.238   6.157  0.7179 -0.7737 -1.0545
  589SOL     OW 3207   1.505   0.873   4.195 -0.5040  0.1100 -0.1363
  589SOL    HW1 3208   1.465   0.946   4.146  1.2949  1.0016 -0.3536
  589SOL    HW2 3209   1.583   0.912   4.235 -0.1194 -1.4489  0.6723
  590SOL     OW 3210   2.520   0.472   4.774 -0.1789 -0.0809  0.7210
  590SOL    HW1 3211   2.447   0.444   4.718 -1.1700 -1.2455  2.5185
  590SOL    HW2 3212   2.593   0.417   4.747  0.5129  1.9059 -1.9314
  591SOL     OW 3213   2.657   0.188   6.370 -0.2107 -0.0205 -0.4377
  591SOL    HW1 3214   2.672   0.229   6.455 -1.5012 -0.3481 -0.0343
  591SOL    HW2 3215   2.575   0.139   6.381 -0.4177 -0.0333 -1.8713
  592SOL     OW 3216   1.077   1.217   6.604  0.0100 -0.2565 -0.3554
  592SOL    HW1 3217   1.141   1.233   6.673 -0.8098 -0.4519  0.4678
  592SOL    HW2 3218   0.997   1.260   6.634 -0.7023 -1.3637 -0.5960
  593SOL     OW 3219   7.787   1.982   4.766  0.0206 -0.3230  0.8863
  593SOL    HW1 3220   7.794   2.062   4.713 -3.1159  0.1577  0.9739
  593SOL    HW2 3221   7.873   1.940   4.759  1.3993  2.4395 -0.1365
  594SOL     OW 3222   1.867   0.322   3.868  0.2860  0.7090  0.1909
  594SOL    HW1 3223   1.810   0.315   3.945  0.5860  1.5802  0.5034
  594SOL    HW2 3224   1.917   0.240   3.868  0.5644  0.8626  1.1523
  595SOL     OW 3225   0.334   1.747   4.523  0.1044 -0.7602 -0.1936
  595SOL    HW1 3226   0.275   1.809   4.564  0.2597 -0.4915 -0.3760
  595SOL    HW2 3227   0.413   1.797   4.504 -0.4499 -0.5085 -2.0908
  596SOL     OW 3228   7.329   0.082   6.100  0.1941 -0.1694  0.0181
  596SOL    HW1 3229   7.393   0.029   6.149  1.0207 -0.0538 -0.8901
  596SOL    HW2 3230   7.361   0.079   6.010  0.6484  2.4186  0.0320
  597SOL     OW 3231   0.888   7.292   5.481 -0.0482 -0.4083  0.1883
  597SOL    HW1 3232   0.921   7.228   5.543  0.0562  0.4663  1.0444
  597SOL    HW2 3233   0.966   7.327   5.438 -0.0473 -0.2997  0.2771
  598SOL     OW 3234   2.328   6.263   5.611  0.4419 -0.0240 -0.3036
  598SOL    HW1 3235   2.349   6.174   5.638 -1.3976 -0.4342 -0.0481
  598SOL    HW2 3236   2.279   6.253   5.530 -2.0674  0.4848  1.0377
  599SOL     OW 3237   2.045   7.434   5.203  0.0447 -0.5373  0.6207
  599SOL    HW1 3238   2.102   7.484   5.145  1.1436  0.0327  2.1154
  599SOL    HW2 3239   1.957   7.446   5.167  0.5881  0.4505 -0.4408
  600SOL     OW 3240   7.500   4.037   3.695  0.0322 -0.5272 -0.2580
  600SOL    HW1 3241   7.449   3.967   3.654 -1.2990 -0.7503  1.6169
  600SOL    HW2 3242   7.543   3.995   3.770  1.6039  0.0584 -0.7992
  601SOL     OW 3243   0.073   1.624   3.742  0.2844 -0.4504  0.2938
  601SOL    HW1 3244   0.021   1.675   3.805 -0.8717 -2.8098  1.3743
  601SOL    HW2 3245   0.012   1.604   3.671  0.7117 -0.3523 -0.1045
  602SOL     OW 3246   7.522   1.948   5.909  0.2360  0.1791 -0.0535
  602SOL    HW1 3247   7.535   1.887   5.836  0.5723  0.8516 -0.5657
  602SOL    HW2 3248   7.515   2.034   5.868  1.2713  0.6806  0.7490
  603SOL     OW 3249   0.569   3.316   3.639 -0.6448 -0.1888 -0.7745
  603SOL    HW1 3250   0.513   3.392   3.622 -0.4637  0.1413  0.0931
  603SOL    HW2 3251   0.618   3.305   3.557 -1.6428 -0.2115 -1.3921
  604SOL     OW 3252   2.649   7.171   5.025  0.2288  0.0100 -0.4262
  604SOL    HW1 3253   2.618   7.081   5.019  3.1222 -1.0334 -1.4196
  604SOL    HW2 3254   2.701   7.184   4.946  0.0451  2.5080 -0.2102
  605SOL     OW 3255   2.280   1.164   4.279  0.1594 -0.1893 -0.3461
  605SOL    HW1 3256   2.215   1.210   4.332 -0.2993  0.3351 -1.3344
  605SOL    HW2 3257   2.357   1.158   4.336 -0.1197  0.8752  0.1700
  606SOL     OW 3258   0.671   0.006   4.761  0.8856  0.6012  0.0449
  606SOL    HW1 3259   0.657   0.075   4.827  0.1622 -0.0397  0.5810
  606SOL    HW2 3260   0.682   0.054   4.679  2.4036  1.4452  0.7039
  607SOL     OW 3261   1.178   7.461   5.263 -0.1550 -0.4327 -0.2317
  607SOL    HW1 3262   1.149   7.503   5.344 -0.7734  0.1003 -0.7116
  607SOL    HW2 3263   1.273   7.461   5.269 -0.1593  0.4865  0.0676
  608SOL     OW 3264   7.977   2.076   5.337 -0.0447  0.4586 -0.8634
  608SOL    HW1 3265   7.989   2.165   5.371  0.1791  0.9229 -2.1141
  608SOL    HW2 3266   7.999   2.083   5.244  0.9889 -1.1279 -0.7696
  609SOL     OW 3267   0.905   1.717   5.585  0.4910 -0.1922 -0.4175
  609SOL    HW1 3268   0.981   1.705   5.527  0.1359 -0.5748 -0.8106
  609SOL    HW2 3269   0.935   1.687   5.671  1.4960  1.7069 -0.0362
  610SOL     OW 3270   7.533   3.467   3.601 -0.2617 -0.0300 -0.2155
  610SOL    HW1 3271   7.530   3.437   3.511 -1.2473 -0.3467 -0.0911
  610SOL    HW2 3272   7.612   3.521   3.606 -1.4659  2.0488 -1.9142
  611SOL     OW 3273   1.980   0.343   5.307  0.1814  0.6561 -0.1082
  611SOL    HW1 3274   2.008   0.433   5.323 -0.4281  0.7387  0.5114
  611SOL    HW2 3275   1.888   0.341   5.331 -0.2035  0.2259 -1.5251
  612SOL     OW 3276   1.658   1.180   3.937 -0.3393  0.4298 -0.3852
  612SOL    HW1 3277   1.649   1.199   4.030  0.3028  0.6014 -0.3541
  612SOL    HW2 3278   1.753   1.169   3.924 -0.5929 -2.4776 -0.4424
  613SOL     OW 3279   1.944   1.506   2.457 -0.0056  0.6999 -0.0715
  613SOL    HW1 3280   1.949   1.445   2.531  1.5294 -0.8759 -1.4036
  613SOL    HW2 3281   1.857   1.546   2.466  0.0929  0.5515  2.5338
  614SOL     OW 3282   2.120   2.057   6.253 -0.2902  0.8202 -0.3582
  614SOL    HW1 3283   2.078   2.140   6.231  0.0554  0.4528 -2.5437
  614SOL    HW2 3284   2.214   2.075   6.248 -0.1867  0.6800  0.7692
  615SOL     OW 3285   3.036   0.510   5.783  0.5263  0.3636 -0.2344
  615SOL    HW1 3286   3.021   0.450   5.709  0.3973  0.3697 -0.2133
  615SOL    HW2 3287   2.960   0.499   5.839  0.4779  0.5880 -0.2557
  616SOL     OW 3288   0.081   1.713   5.751  0.0717 -0.9251  0.1173
  616SOL    HW1 3289   0.060   1.759   5.670 -0.5442 -2.2737 -0.5053
  616SOL    HW2 3290  -0.003   1.702   5.795  0.3615 -0.4943  0.8109
  617SOL     OW 3291   1.560   0.127   4.254  0.0067  0.1806 -0.1462
  617SOL    HW1 3292   1.627   0.168   4.198  0.5723 -1.3489 -0.6423
  617SOL    HW2 3293   1.611   0.075   4.317 -0.6937 -0.1986  0.1099
  618SOL     OW 3294   7.485   7.229   4.969  0.5067 -0.0109  0.1962
  618SOL    HW1 3295   7.567   7.180   4.970  0.8717  0.5844  1.1351
  618SOL    HW2 3296   7.417   7.162   4.967  1.0081 -0.5097 -0.7373
  619SOL     OW 3297   1.026   3.637   4.420  0.4414 -0.2247 -0.3620
  619SOL    HW1 3298   1.028   3.590   4.503  0.6199  0.1392 -0.1600
  619SOL    HW2 3299   0.970   3.583   4.364  0.2707 -0.4401  0.0103
  620SOL     OW 3300   7.863   0.772   6.196  0.2744 -0.0089 -0.0184
  620SOL    HW1 3301   7.908   0.731   6.270  1.0797  0.1734 -0.3967
  620SOL    HW2 3302   7.771   0.774   6.222  0.2586 -1.7102  0.1779
  621SOL     OW 3303   2.763   7.885   4.720 -0.2911 -0.5950 -0.1788
  621SOL    HW1 3304   2.700   7.872   4.791 -2.3343  0.6932 -1.6269
  621SOL    HW2 3305   2.724   7.954   4.666  2.9378  1.1013 -0.5948
  622SOL     OW 3306   2.104   7.850   3.838  0.7552  0.0665 -0.5835
  622SOL    HW1 3307   2.068   7.780   3.783  0.6996 -0.5484  0.2118
  622SOL    HW2 3308   2.195   7.825   3.852  0.5318 -0.2611  0.3375
  623SOL     OW 3309   1.869   0.734   2.306 -0.0981 -0.2824  0.2752
  623SOL    HW1 3310   1.818   0.679   2.248 -0.8950 -1.9520  2.4316
  623SOL    HW2 3311   1.804   0.784   2.356  0.4970 -0.0237  0.8120
  624SOL     OW 3312   1.082   1.227   4.761 -0.2194 -0.2121 -0.0127
  624SOL    HW1 3313   1.093   1.176   4.681  0.2680 -4.0904  2.2650
  624SOL    HW2 3314   1.163   1.277   4.768  0.4302 -1.0485 -1.1616
  625SOL     OW 3315   1.861   0.609   3.270  0.2724 -0.0026 -0.1769
  625SOL    HW1 3316   1.805   0.536   3.295 -2.1536  1.6882 -0.4110
  625SOL    HW2 3317   1.897   0.641   3.353 -0.9957  0.3252  0.2680
  626SOL     OW 3318   0.572   1.617   4.199  0.0996  0.0473  0.3633
  626SOL    HW1 3319   0.496   1.578   4.242  0.5961 -1.2399  0.1389
  626SOL    HW2 3320   0.536   1.677   4.134 -0.7444 -0.8849 -0.0540
  627SOL     OW 3321   3.625   2.090   2.690 -0.1932  0.5245  0.1359
  627SOL    HW1 3322   3.544   2.089   2.741 -1.0473 -1.6225 -1.1216
  627SOL    HW2 3323   3.598   2.068   2.601  1.8137 -0.8712 -0.2040
  628SOL     OW 3324   7.715   1.374   2.923  0.0123  0.3911 -0.1297
  628SOL    HW1 3325   7.715   1.284   2.956  0.1247 -0.1205 -1.4444
  628SOL    HW2 3326   7.751   1.367   2.835 -0.7134  1.6157 -0.5509
  629SOL     OW 3327   1.582   0.921   4.547  0.4335  0.3969  0.0113
  629SOL    HW1 3328   1.654   0.908   4.609  1.3261 -0.5108 -1.1645
  629SOL    HW2 3329   1.622   0.910   4.461 -1.2858 -1.1617 -0.6555
  630SOL     OW 3330   1.933   0.289   4.835 -0.3775 -0.1138 -0.7522
  630SOL    HW1 3331   1.944   0.264   4.743 -0.7156  0.3044 -0.9144
  630SOL    HW2 3332   1.959   0.381   4.837 -0.7249 -0.0194 -0.5030
  631SOL     OW 3333   1.875   0.873   5.543 -0.1640 -0.0090 -0.8700
  631SOL    HW1 3334   1.780   0.883   5.543 -0.2373 -0.1587  1.3666
  631SOL    HW2 3335   1.895   0.833   5.628  1.8575 -0.5355 -1.5251
  632SOL     OW 3336   0.247   0.435   6.793 -0.3178  0.3033  0.1768
  632SOL    HW1 3337   0.341   0.439   6.774  0.3947 -0.0252  3.1055
  632SOL    HW2 3338   0.237   0.358   6.850 -2.8622 -1.2873 -2.1556
  633SOL     OW 3339   1.242   7.755   5.814  0.1404  0.1122  0.4638
  633SOL    HW1 3340   1.181   7.681   5.807  3.0353 -2.4199 -0.1696
  633SOL    HW2 3341   1.217   7.814   5.743 -1.1679 -1.1295 -0.1510
  634SOL     OW 3342   2.181   2.456   4.673 -0.1789  0.1327 -0.0801
  634SOL    HW1 3343   2.131   2.444   4.754 -0.3396  0.3405 -0.1493
  634SOL    HW2 3344   2.142   2.532   4.631  0.6414  0.7223  0.2014
  635SOL     OW 3345   1.357   0.764   3.834 -0.3743 -0.2323  0.6968
  635SOL    HW1 3346   1.293   0.825   3.795 -0.3750 -0.3288  0.5483
  635SOL    HW2 3347   1.330   0.758   3.926 -0.6196 -0.3222  0.6216
  636SOL     OW 3348   7.844   1.560   4.226  0.9806  0.0785 -0.3089
  636SOL    HW1 3349   7.836   1.495   4.296  0.5654  2.7363  2.3027
  636SOL    HW2 3350   7.801   1.519   4.151 -0.1175 -2.2849  1.4606
  637SOL     OW 3351   0.525   2.289   6.317  0.5794  0.2476  0.4582
  637SOL    HW1 3352   0.430   2.292   6.313  0.6088  0.1449 -0.6773
  637SOL    HW2 3353   0.546   2.196   6.316  0.6782  0.2217  1.9410
  638SOL     OW 3354   7.231   7.681   6.803 -0.6468 -0.5477  0.2902
  638SOL    HW1 3355   7.292   7.630   6.749 -1.0062  0.4028 -1.0869
  638SOL    HW2 3356   7.245   7.771   6.775 -1.4520 -0.1203  1.2210
  639SOL     OW 3357   1.592   1.794   3.663  0.0471 -0.2946 -0.0366
  639SOL    HW1 3358   1.525   1.726   3.669 -0.8723  0.6672  1.0560
  639SOL    HW2 3359   1.557   1.867   3.714  1.3366  0.7349 -0.5646
  640SOL     OW 3360   0.734   6.977   5.707 -0.3949  0.6123  0.3040
  640SOL    HW1 3361   0.730   7.033   5.784 -0.0512  0.4679  0.4254
  640SOL    HW2 3362   0.730   6.888   5.741 -0.2093  0.5479  0.1604
  641SOL     OW 3363   7.914   0.428   4.850 -0.3327 -0.7260  0.0606
  641SOL    HW1 3364   7.907   0.405   4.758 -2.5611  3.3362 -1.0450
  641SOL    HW2 3365   8.005   0.456   4.862 -0.6009  1.0710 -1.6738
  642SOL     OW 3366   1.810   2.261   4.060  0.0674 -0.2677  0.4052
  642SOL    HW1 3367   1.811   2.173   4.023  0.3304 -0.5054  0.9667
  642SOL    HW2 3368   1.876   2.258   4.129 -0.8219 -0.0002  1.2733
  643SOL     OW 3369   0.640   0.890   6.064  0.0301  0.1417 -0.0864
  643SOL    HW1 3370   0.702   0.868   6.133 -2.8059 -3.6093  1.6221
  643SOL    HW2 3371   0.633   0.810   6.011 -2.8113  0.5913 -0.5661
  644SOL     OW 3372   2.460   1.188   4.844 -0.1324 -0.4959  0.0855
  644SOL    HW1 3373   2.471   1.103   4.885  0.3638  0.5506  2.3108
  644SOL    HW2 3374   2.545   1.230   4.853 -0.5889  0.5237 -0.1974
  645SOL     OW 3375   1.022   0.591   5.600 -0.0430  0.2167  0.0671
  645SOL    HW1 3376   0.991   0.555   5.517  0.5259  0.5270 -0.2827
  645SOL    HW2 3377   0.959   0.661   5.620 -0.6423 -0.3767  0.3100
  646SOL     OW 3378   2.583   1.664   5.518 -0.0669 -0.4419 -0.2857
  646SOL    HW1 3379   2.527   1.673   5.596  0.6943  1.4701  0.0955
  646SOL    HW2 3380   2.578   1.749   5.475 -0.3784 -1.4293 -2.3075
  647SOL     OW 3381   7.136   2.893   4.784  0.3696  0.8575  0.5751
  647SOL    HW1 3382   7.227   2.918   4.799 -0.0408  2.2369  0.8860
  647SOL    HW2 3383   7.099   2.883   4.872  0.3174 -0.1664  0.4567
  648SOL     OW 3384   1.003   0.850   4.272 -0.6452  0.0065 -0.2105
  648SOL    HW1 3385   1.085   0.835   4.318 -1.1099 -3.1363 -0.1843
  648SOL    HW2 3386   0.953   0.908   4.329  1.4162  1.8336 -0.1503
  649SOL     OW 3387   1.277   7.001   6.024  0.2055 -0.6840  0.6085
  649SOL    HW1 3388   1.305   7.090   6.048  0.6181 -1.3001  2.5237
  649SOL    HW2 3389   1.213   7.015   5.954 -0.4644  1.1973  1.5263
  650SOL     OW 3390   7.560   1.874   4.411  0.1025  0.3387  0.3124
  650SOL    HW1 3391   7.642   1.827   4.397 -0.9746 -1.4366 -0.4061
  650SOL    HW2 3392   7.534   1.850   4.500 -0.0776  0.1868  0.2182
  651SOL     OW 3393   1.938   0.145   5.729 -0.2311  0.8435 -0.0589
  651SOL    HW1 3394   2.004   0.081   5.704 -1.0433  0.2915 -0.8391
  651SOL    HW2 3395   1.974   0.187   5.807  0.9252  0.3901 -0.3313
  652SOL     OW 3396   3.876   6.836   4.733  0.7026  0.6653  0.0295
  652SOL    HW1 3397   3.824   6.877   4.664  0.5998  0.5941  0.0635
  652SOL    HW2 3398   3.959   6.814   4.691  0.2678 -0.3211 -0.3568
  653SOL     OW 3399   1.362   1.989   3.959  1.1507 -0.4006  0.3841
  653SOL    HW1 3400   1.436   1.930   3.966  0.8112 -0.6621  2.1237
  653SOL    HW2 3401   1.376   2.055   4.027  0.2977  0.1253  0.0743
  654SOL     OW 3402   7.806   1.654   5.804 -0.0264  0.4302  0.0193
  654SOL    HW1 3403   7.742   1.708   5.758  0.3031  1.3899  0.6628
  654SOL    HW2 3404   7.769   1.642   5.892 -0.4868 -1.0939 -0.3590
  655SOL     OW 3405   0.594   1.759   5.235  0.0252  0.0079  0.1366
  655SOL    HW1 3406   0.504   1.781   5.262  0.0338  1.5462 -0.9424
  655SOL    HW2 3407   0.602   1.797   5.148  1.5917 -0.5150  0.0313
  656SOL     OW 3408   2.174   1.144   3.315  0.0932 -0.0454  0.4940
  656SOL    HW1 3409   2.176   1.162   3.221 -1.7814  1.4489  0.6808
  656SOL    HW2 3410   2.130   1.059   3.323  0.1953 -0.1430  0.0277
  657SOL     OW 3411   4.157   0.560   5.120 -0.3588 -0.2058  0.9683
  657SOL    HW1 3412   4.239   0.541   5.166  0.3663 -0.1173 -0.2441
  657SOL    HW2 3413   4.155   0.497   5.048  0.4383  1.9905 -1.1329
  658SOL     OW 3414   0.431   0.386   6.093  0.0744 -0.1858 -0.2231
  658SOL    HW1 3415   0.438   0.403   6.187 -2.1583 -0.0462 -0.0327
  658SOL    HW2 3416   0.366   0.448   6.062  1.0450  0.0150 -1.9708
  659SOL     OW 3417   2.869   1.824   3.135 -0.0626  0.5909  0.3665
  659SOL    HW1 3418   2.884   1.842   3.042 -1.2755 -0.9012 -0.1503
  659SOL    HW2 3419   2.910   1.739   3.150 -0.1352  0.6847  1.1246
  660SOL     OW 3420   1.551   7.529   4.963  0.1009  0.1518 -0.6251
  660SOL    HW1 3421   1.492   7.582   5.017  0.1274 -1.2044  0.7740
  660SOL    HW2 3422   1.511   7.442   4.961  1.0964 -0.3123 -1.2194
  661SOL     OW 3423   2.417   7.644   4.080  0.0697  0.1391 -0.0749
  661SOL    HW1 3424   2.381   7.678   4.162 -0.1723  0.0825 -0.1572
  661SOL    HW2 3425   2.350   7.584   4.047  0.7352 -0.8830  0.3665
  662SOL     OW 3426   0.950   3.036   4.407 -0.4860  0.0686  0.1186
  662SOL    HW1 3427   0.992   3.114   4.443  1.6076 -0.2919 -1.3834
  662SOL    HW2 3428   0.860   3.064   4.390  0.3834  2.4205 -1.0564
  663SOL     OW 3429   2.566   0.342   4.221 -0.4062  0.1772  0.3362
  663SOL    HW1 3430   2.527   0.258   4.198  0.4903 -0.4347  0.9629
  663SOL    HW2 3431   2.497   0.388   4.270 -1.0748  0.0250 -0.4494
  664SOL     OW 3432   1.199   7.874   7.027  0.0620  0.4841  0.0900
  664SOL    HW1 3433   1.133   7.809   7.051  0.7089 -0.6286 -1.0407
  664SOL    HW2 3434   1.165   7.956   7.063 -1.1804 -0.3116  0.8451
  665SOL     OW 3435   7.803   4.240   3.073 -0.2961  0.3431  0.0024
  665SOL    HW1 3436   7.842   4.238   2.986  0.1940 -1.5195  0.2273
  665SOL    HW2 3437   7.872   4.274   3.130  0.7254 -1.9734  0.2323
  666SOL     OW 3438   0.381   7.518   6.201  0.4122  0.0590 -1.3978
  666SOL    HW1 3439   0.299   7.473   6.177 -0.1652  0.2463  0.1033
  666SOL    HW2 3440   0.381   7.518   6.297  1.5630  1.1913 -1.3695
  667SOL     OW 3441   2.378   7.471   3.694  0.4316 -0.3803  0.5893
  667SOL    HW1 3442   2.401   7.466   3.602  1.0844 -1.1621  0.7830
  667SOL    HW2 3443   2.291   7.433   3.701  0.4554 -0.4776  0.3275
  668SOL     OW 3444   2.321   2.119   3.494  0.6348 -0.0494  0.4813
  668SOL    HW1 3445   2.399   2.076   3.530  0.2381  0.3619  1.8927
  668SOL    HW2 3446   2.343   2.136   3.402  1.9197 -0.6124  0.6680
  669SOL     OW 3447   0.766   1.121   5.265 -0.0367 -0.5503 -0.1822
  669SOL    HW1 3448   0.750   1.215   5.256  0.4610 -0.4690 -0.2531
  669SOL    HW2 3449   0.739   1.083   5.181 -0.7487 -0.5443  0.0417
  670SOL     OW 3450   0.872   7.571   4.720  0.2603 -0.0576  0.1334
  670SOL    HW1 3451   0.892   7.642   4.781  0.8671  0.1067 -0.2455
  670SOL    HW2 3452   0.926   7.589   4.644 -0.9949  0.1226 -0.7511
  671SOL     OW 3453   0.238   2.719   4.607 -0.0436 -0.2782  0.4516
  671SOL    HW1 3454   0.168   2.672   4.652 -0.5550  0.1480  0.1149
  671SOL    HW2 3455   0.232   2.808   4.640  0.0980 -0.1529  0.1430
  672SOL     OW 3456   6.876   2.228   3.123 -0.2532  0.9489  0.4647
  672SOL    HW1 3457   6.839   2.140   3.117  0.2375  0.8034 -0.9362
  672SOL    HW2 3458   6.903   2.249   3.033 -0.3131  2.5113  0.7766
  673SOL     OW 3459   0.673   1.111   2.894 -0.1606  0.0474 -0.1181
  673SOL    HW1 3460   0.656   1.079   2.805 -0.3898  0.2569 -0.1525
  673SOL    HW2 3461   0.700   1.034   2.943  2.4143  0.3469 -0.9575
  674SOL     OW 3462   0.691   1.306   6.113 -0.3215 -0.2282  0.1826
  674SOL    HW1 3463   0.740   1.385   6.136 -1.6431 -0.0351  2.7265
  674SOL    HW2 3464   0.755   1.236   6.118 -0.2022 -0.0783  4.0870
  675SOL     OW 3465   7.626   0.239   6.077 -0.7282 -0.0073 -0.3273
  675SOL    HW1 3466   7.574   0.186   6.016  0.7188 -1.9116  0.0074
  675SOL    HW2 3467   7.662   0.175   6.139  1.2465  1.3544 -0.0045
  676SOL     OW 3468   1.627   1.116   4.852  0.3054  0.0582  0.0500
  676SOL    HW1 3469   1.626   1.020   4.859 -1.1282  0.1279  1.1413
  676SOL    HW2 3470   1.714   1.136   4.817 -0.0256 -1.7357 -2.0820
  677SOL     OW 3471   1.612   0.176   8.146  0.2172 -1.0490  0.2926
  677SOL    HW1 3472   1.646   0.168   8.235  1.5161 -0.3647 -0.1091
  677SOL    HW2 3473   1.523   0.208   8.157  0.6087 -0.2448  1.3288
  678SOL     OW 3474   2.324   7.560   6.761  0.0468 -0.1818 -0.0869
  678SOL    HW1 3475   2.268   7.540   6.836 -1.0140 -0.2231 -0.8716
  678SOL    HW2 3476   2.366   7.477   6.740 -2.7025 -1.2442 -1.9840
  679SOL     OW 3477   2.817   0.674   6.280 -0.5147 -0.1753 -0.5979
  679SOL    HW1 3478   2.834   0.672   6.374  0.4419 -1.3775 -0.7698
  679SOL    HW2 3479   2.723   0.693   6.273 -0.6031 -0.1031  0.5923
  680SOL     OW 3480   1.497   1.277   5.056 -0.2932  0.3093  0.1957
  680SOL    HW1 3481   1.459   1.340   4.994 -2.0591 -0.6318  0.2663
  680SOL    HW2 3482   1.538   1.211   5.000  4.4922  2.9891  0.0659
  681SOL     OW 3483   2.398   7.773   5.853 -0.2943  0.4862 -0.0957
  681SOL    HW1 3484   2.442   7.848   5.813 -1.3319  1.7175  0.9719
  681SOL    HW2 3485   2.374   7.803   5.941 -0.3026 -1.2800  0.5515
  682SOL     OW 3486   7.169   1.354   7.855 -0.3327 -0.1289 -0.2989
  682SOL    HW1 3487   7.093   1.372   7.911 -0.9381 -0.7152 -0.9114
  682SOL    HW2 3488   7.215   1.438   7.849 -1.2327  0.3727 -0.3596
  683SOL     OW 3489   1.694   0.303   6.647 -0.4430  0.6949  0.3093
  683SOL    HW1 3490   1.600   0.319   6.637 -0.1269  2.2465 -0.5109
  683SOL    HW2 3491   1.708   0.303   6.742 -1.3973 -0.5160  0.4735
  684SOL     OW 3492   1.243   1.092   7.735  0.4157  0.6359 -0.0063
  684SOL    HW1 3493   1.161   1.078   7.783 -1.0506 -0.3139 -2.6153
  684SOL    HW2 3494   1.235   1.182   7.702  0.1616  0.3456 -0.7351
  685SOL     OW 3495   7.537   1.110   7.126  0.2238  0.4689  0.0813
  685SOL    HW1 3496   7.583   1.061   7.058  1.7495  1.3500  0.4177
  685SOL    HW2 3497   7.484   1.045   7.171  0.1661 -0.3553 -1.1392
  686SOL     OW 3498   2.340   7.818   7.402 -0.6093  0.2163 -0.2494
  686SOL    HW1 3499   2.289   7.744   7.435  2.6618 -1.2137  2.1736
  686SOL    HW2 3500   2.416   7.778   7.360  1.5696  2.0361  1.6366
  687SOL     OW 3501   0.972   1.423   5.956  0.4783 -0.6963 -0.3320
  687SOL    HW1 3502   0.958   1.515   5.936 -1.2741 -0.6180  0.9721
  687SOL    HW2 3503   1.032   1.423   6.031  1.7424 -0.7302 -1.2981
  688SOL     OW 3504   1.366   1.972   5.288  0.0029 -0.0275  0.3176
  688SOL    HW1 3505   1.329   2.060   5.284 -0.5181 -0.2559 -0.0968
  688SOL    HW2 3506   1.459   1.985   5.304 -0.0168  0.6126 -0.0734
  689SOL     OW 3507   1.465   1.957   6.384 -0.0024  0.0334 -0.3940
  689SOL    HW1 3508   1.387   1.987   6.338 -0.4438  0.7447  0.7529
  689SOL    HW2 3509   1.445   1.868   6.412  0.5073 -0.6319 -2.0545
  690SOL     OW 3510   1.787   1.117   7.495 -0.0906  0.4562 -0.1813
  690SOL    HW1 3511   1.712   1.132   7.437  0.1269  2.7982  0.0387
  690SOL    HW2 3512   1.831   1.041   7.459 -1.6970 -0.0340 -1.2271
  691SOL     OW 3513   1.794   0.967   6.045 -0.0732  0.4581 -0.3807
  691SOL    HW1 3514   1.826   0.983   6.133  0.6589 -1.0041 -0.3530
  691SOL    HW2 3515   1.718   0.910   6.056 -2.2015  3.1170 -0.5109
  692SOL     OW 3516   2.804   1.873   7.521 -0.1571 -0.4414 -0.1586
  692SOL    HW1 3517   2.824   1.966   7.507  0.9096 -0.8694 -1.7057
  692SOL    HW2 3518   2.735   1.853   7.459 -1.5481 -0.3303  1.3014
  693SOL     OW 3519   1.207   1.697   4.526 -0.5572 -0.0083 -0.5873
  693SOL    HW1 3520   1.285   1.751   4.542  1.2210 -1.8219 -2.5804
  693SOL    HW2 3521   1.238   1.607   4.530 -2.6899 -0.8204 -0.9271
  694SOL     OW 3522   1.785   1.140   8.089 -0.4680 -0.4621  0.0044
  694SOL    HW1 3523   1.790   1.101   8.001 -0.3310  0.0754 -0.2289
  694SOL    HW2 3524   1.877   1.147   8.117 -0.5022 -0.4633  0.1172
  695SOL     OW 3525   2.053   0.265   5.945  0.8631  0.4263 -0.3545
  695SOL    HW1 3526   2.064   0.226   6.032  0.7441  1.6257  0.2239
  695SOL    HW2 3527   2.001   0.344   5.961 -0.6886 -0.2725 -1.7845
  696SOL     OW 3528   3.707   3.020   6.268  0.2158 -0.4364  0.1040
  696SOL    HW1 3529   3.774   3.061   6.214 -1.0525 -0.4567 -1.5613
  696SOL    HW2 3530   3.628   3.071   6.251 -0.3091 -0.6643  1.6931
  697SOL     OW 3531   7.716   2.637   4.039 -0.4080  0.2889 -0.2802
  697SOL    HW1 3532   7.769   2.601   3.968 -0.9565 -2.1172  0.4155
  697SOL    HW2 3533   7.637   2.670   3.997  0.0655  0.5653 -0.9565
  698SOL     OW 3534   2.221   0.176   6.205 -0.1196 -0.2890  0.2058
  698SOL    HW1 3535   2.252   0.257   6.247  2.6729 -0.3404 -1.5266
  698SOL    HW2 3536   2.278   0.108   6.240 -0.6906 -1.0883 -0.3790
  699SOL     OW 3537   3.176   1.667   5.052  0.5856  0.3215 -0.2085
  699SOL    HW1 3538   3.252   1.667   5.110 -0.0875 -0.5777  0.7038
  699SOL    HW2 3539   3.106   1.627   5.104 -0.0384 -0.5187 -1.6420
  700SOL     OW 3540   1.294   6.936   8.425 -0.0804  0.0751 -0.1362
  700SOL    HW1 3541   1.309   6.881   8.502  0.3596  0.0173 -0.2626
  700SOL    HW2 3542   1.345   6.894   8.355 -1.1285 -0.3437 -0.6662
  701SOL     OW 3543   1.239   1.862   6.040  0.0833  0.1245  0.3100
  701SOL    HW1 3544   1.212   1.915   5.965 -0.4867  1.7716  1.6072
  701SOL    HW2 3545   1.175   1.883   6.108  2.3764  1.1694  2.2656
  702SOL     OW 3546   0.683   7.771   7.466 -0.0567 -0.0034 -0.1566
  702SOL    HW1 3547   0.742   7.834   7.507  0.6661 -0.2001 -0.8619
  702SOL    HW2 3548   0.698   7.690   7.515  1.2942 -0.4138 -1.1725
  703SOL     OW 3549   2.053   0.057   7.132  0.2208 -0.9862 -0.3236
  703SOL    HW1 3550   1.964   0.024   7.141  0.4516 -1.5097  0.0361
  703SOL    HW2 3551   2.107  -0.021   7.121  0.7624 -0.7417  0.4883
  704SOL     OW 3552   1.589   0.771   7.306  0.0824 -0.2817  0.1263
  704SOL    HW1 3553   1.565   0.734   7.221 -1.4425 -2.0532  1.2772
  704SOL    HW2 3554   1.538   0.852   7.312  0.6471  0.1718 -0.8572
  705SOL     OW 3555   2.590   1.462   5.081 -0.1985  0.0549  0.9453
  705SOL    HW1 3556   2.641   1.405   5.024  0.7753  0.0864  1.7520
  705SOL    HW2 3557   2.546   1.523   5.022 -1.8040 -1.9050 -0.0013
  706SOL     OW 3558   1.045   7.658   7.123  0.6333  0.2996 -0.2596
  706SOL    HW1 3559   1.061   7.610   7.204  1.4511  0.5306 -0.2747
  706SOL    HW2 3560   0.950   7.654   7.111  0.7011 -1.5713 -0.4224
  707SOL     OW 3561   2.089   0.541   4.841  0.1010  0.3529 -0.2268
  707SOL    HW1 3562   2.116   0.569   4.928 -1.3435  1.4020 -0.0902
  707SOL    HW2 3563   2.156   0.576   4.783  1.1129 -0.4099  0.4505
  708SOL     OW 3564   2.288   1.237   6.628  0.2627  0.5748  0.8607
  708SOL    HW1 3565   2.375   1.237   6.668  2.2195 -0.7366 -2.8815
  708SOL    HW2 3566   2.257   1.147   6.638 -0.3228  0.8329  1.4463
  709SOL     OW 3567   0.772   0.648   6.720 -0.0636  0.4319  0.0152
  709SOL    HW1 3568   0.835   0.599   6.668  1.4737  2.8155 -0.5435
  709SOL    HW2 3569   0.779   0.611   6.808  0.2823 -0.9591 -0.5681
  710SOL     OW 3570   1.912   7.573   5.696 -0.1230  1.0061 -0.0478
  710SOL    HW1 3571   1.820   7.598   5.695 -0.5337 -0.3952  0.6085
  710SOL    HW2 3572   1.922   7.514   5.621  0.1278  0.7817  0.1592
  711SOL     OW 3573   2.100   1.875   4.711  0.1010  0.4743  0.1665
  711SOL    HW1 3574   2.113   1.801   4.771  0.2726  0.0685 -0.3666
  711SOL    HW2 3575   2.076   1.948   4.768 -1.5621 -0.3453  0.5825
  712SOL     OW 3576   2.137   1.501   9.160  0.5981 -0.6207 -0.0322
  712SOL    HW1 3577   2.114   1.575   9.217  0.1311  1.5284 -2.8138
  712SOL    HW2 3578   2.219   1.526   9.118  0.2780 -1.5257 -1.2736
  713SOL     OW 3579   1.080   0.282   6.354  0.0506 -0.4446  0.6875
  713SOL    HW1 3580   1.161   0.332   6.360  1.9173 -3.0631 -0.5999
  713SOL    HW2 3581   1.083   0.222   6.429  1.1495 -2.8322 -1.1004
  714SOL     OW 3582   2.282   6.502   4.955 -1.1226  0.0005  0.1422
  714SOL    HW1 3583   2.217   6.505   4.884 -1.1029  2.5426  0.1395
  714SOL    HW2 3584   2.295   6.594   4.978 -0.3140 -0.7101  2.7297
  715SOL     OW 3585   1.041   1.151   6.890 -0.0566  0.6695  0.3840
  715SOL    HW1 3586   1.118   1.207   6.886  0.1371  0.3480 -0.7594
  715SOL    HW2 3587   0.999   1.174   6.973  1.6128  0.3791  1.3555
  716SOL     OW 3588   2.969   7.751   5.327  0.0910  0.5790  0.1252
  716SOL    HW1 3589   2.957   7.659   5.351  0.8346  0.7325  1.1024
  716SOL    HW2 3590   3.023   7.748   5.248 -1.0048  0.1432 -0.6472
  717SOL     OW 3591   1.292   2.107   6.269  0.7770 -0.5598 -0.1055
  717SOL    HW1 3592   1.253   2.167   6.331 -0.3690 -0.6770 -0.6740
  717SOL    HW2 3593   1.218   2.074   6.217  1.5116 -1.5573 -0.5764
  718SOL     OW 3594   1.263   1.026   9.560  0.0485 -0.2009  0.0670
  718SOL    HW1 3595   1.230   1.076   9.485 -0.7318 -1.3796 -0.4066
  718SOL    HW2 3596   1.302   0.947   9.521  0.7331 -0.2508  0.8339
  719SOL     OW 3597   2.765   6.332   4.977 -0.4532 -0.2404  0.3055
  719SOL    HW1 3598   2.855   6.312   5.001 -1.1276 -2.7984  0.9920
  719SOL    HW2 3599   2.762   6.321   4.882  0.3285  1.7455 -0.0011
  720SOL     OW 3600   1.784   7.101   6.856  0.0483  0.1907 -0.2959
  720SOL    HW1 3601   1.839   7.134   6.784 -0.0227  1.7144  0.3127
  720SOL    HW2 3602   1.703   7.074   6.813  0.2979  0.3649 -0.8921
  721SOL     OW 3603   2.301   3.632   4.659 -0.1870 -0.5756 -0.0463
  721SOL    HW1 3604   2.362   3.570   4.699 -2.4045 -3.4186 -0.7243
  721SOL    HW2 3605   2.265   3.585   4.584 -1.4005  1.9150 -1.1447
  722SOL     OW 3606   1.585   7.942   6.518 -0.3070  0.2307  0.4241
  722SOL    HW1 3607   1.625   7.990   6.446  0.7597  1.0536  1.5333
  722SOL    HW2 3608   1.503   7.989   6.536 -0.7190 -0.1429 -0.3988
  723SOL     OW 3609   0.348   1.595   6.097  0.2528 -0.2249 -0.5316
  723SOL    HW1 3610   0.380   1.675   6.057 -1.8260  0.1665 -1.5203
  723SOL    HW2 3611   0.290   1.556   6.032  1.0462 -2.4596 -0.0044
  724SOL     OW 3612   0.614   1.830   6.601 -0.2659 -0.9364 -0.0651
  724SOL    HW1 3613   0.694   1.883   6.597 -0.7709 -0.1726 -0.4273
  724SOL    HW2 3614   0.565   1.865   6.676 -0.6057 -0.8662 -0.3126
  725SOL     OW 3615   2.766   0.449   6.941 -0.1544  0.1948 -0.2842
  725SOL    HW1 3616   2.680   0.413   6.963 -0.0931  0.7362  0.9526
  725SOL    HW2 3617   2.829   0.384   6.973 -0.0857 -0.1046 -1.0026
  726SOL     OW 3618   2.383   0.444   7.610 -0.6299 -0.1848 -0.1365
  726SOL    HW1 3619   2.303   0.428   7.660  0.1840  0.0073  1.2590
  726SOL    HW2 3620   2.423   0.520   7.652  1.0162 -1.1418  0.1015
  727SOL     OW 3621   1.534   1.764   7.909 -0.2164  0.3132 -0.1909
  727SOL    HW1 3622   1.593   1.689   7.918 -0.1184  0.4318  0.1698
  727SOL    HW2 3623   1.490   1.750   7.825  0.4707  0.3290 -0.5607
  728SOL     OW 3624   2.214   2.657   5.365 -0.6641  0.8501 -0.3149
  728SOL    HW1 3625   2.172   2.742   5.381 -0.0785  0.6593  3.1820
  728SOL    HW2 3626   2.307   2.674   5.383 -0.3333 -0.2642 -0.9265
  729SOL     OW 3627   0.579   0.828   7.562  0.1283  0.1021 -0.4751
  729SOL    HW1 3628   0.506   0.879   7.597 -0.5702 -0.2834 -1.3427
  729SOL    HW2 3629   0.538   0.764   7.503  1.0969 -0.6297 -0.3803
  730SOL     OW 3630   0.572   1.859   5.991  0.0422 -0.0586  0.4071
  730SOL    HW1 3631   0.615   1.854   5.906  0.9681 -0.9097  0.9161
  730SOL    HW2 3632   0.479   1.871   5.970  0.3024  0.0938 -0.7094
  731SOL     OW 3633   1.759   7.968   6.252  0.0620  0.9559  0.4015
  731SOL    HW1 3634   1.707   8.026   6.196 -0.5833 -0.2429 -0.3065
  731SOL    HW2 3635   1.843   8.011   6.261  0.4549  0.8931 -2.1192
  732SOL     OW 3636   2.500   0.329   7.006  0.0755  0.3999  0.3940
  732SOL    HW1 3637   2.473   0.319   7.097  2.8278 -0.0102  1.2521
  732SOL    HW2 3638   2.517   0.239   6.976  1.5440  0.6796  0.3058
  733SOL     OW 3639   0.966   1.996   6.487  0.3204  0.6627  0.2881
  733SOL    HW1 3640   0.897   2.025   6.546 -0.8961 -0.8577 -0.3386
  733SOL    HW2 3641   1.039   1.974   6.545 -0.6356 -0.2137  1.1951
  734SOL     OW 3642   2.603   5.995   5.223 -0.8747 -0.0309 -0.1685
  734SOL    HW1 3643   2.691   5.988   5.187 -0.1274 -1.4730  1.7426
  734SOL    HW2 3644   2.587   6.089   5.230 -0.6344  0.3096 -3.0336
  735SOL     OW 3645   1.408   1.975   7.012  0.5955 -0.4424  0.4562
  735SOL    HW1 3646   1.399   1.899   6.956 -0.2660  1.2897 -1.9152
  735SOL    HW2 3647   1.469   2.032   6.966 -0.0076  0.9883  1.3385
  736SOL     OW 3648   2.093   1.707   5.892  0.0482  0.4375 -0.3561
  736SOL    HW1 3649   2.169   1.763   5.911 -0.0481 -0.1711  2.2884
  736SOL    HW2 3650   2.122   1.619   5.917 -1.1257 -0.0025 -0.4999
  737SOL     OW 3651   7.929   1.470   5.606  0.5171 -0.0828  0.2965
  737SOL    HW1 3652   7.949   1.518   5.686  0.4847  0.7812 -0.1972
  737SOL    HW2 3653   7.906   1.538   5.543 -1.6252 -0.8373  0.1553
  738SOL     OW 3654   1.251   0.081   7.691  0.2135  0.5762  0.0102
  738SOL    HW1 3655   1.235  -0.013   7.690  0.2435  0.5639  0.5539
  738SOL    HW2 3656   1.271   0.101   7.782 -1.1472  1.3381  0.1623
  739SOL     OW 3657   7.742   0.935   5.986 -0.4100 -0.0571  0.0578
  739SOL    HW1 3658   7.738   1.030   6.000 -0.7097  0.2388 -1.8225
  739SOL    HW2 3659   7.785   0.902   6.065  0.0242  1.6721  0.6060
  740SOL     OW 3660   0.218   0.226   6.988 -0.6136 -0.2515  0.1681
  740SOL    HW1 3661   0.297   0.173   7.000 -0.1969  0.0276 -1.1693
  740SOL    HW2 3662   0.149   0.162   6.972  0.2447 -0.4825 -3.5105
  741SOL     OW 3663   0.554   1.955   6.333 -0.1761  0.3206 -0.0121
  741SOL    HW1 3664   0.565   1.917   6.420  1.6248 -0.8164 -0.6813
  741SOL    HW2 3665   0.462   1.938   6.311 -0.8937  1.3665  1.9631
  742SOL     OW 3666   2.073   7.882   6.424  0.0782 -0.2283  0.3874
  742SOL    HW1 3667   2.001   7.868   6.485  0.5712  0.8869  1.2504
  742SOL    HW2 3668   2.044   7.955   6.370 -0.4106 -1.2831 -0.8556
  743SOL     OW 3669   1.255   7.313   6.054 -0.2659 -0.6124 -0.1989
  743SOL    HW1 3670   1.165   7.287   6.072 -0.8467  1.3445 -0.0289
  743SOL    HW2 3671   1.268   7.393   6.106  1.8721 -1.3113  0.4731
  744SOL     OW 3672   3.182   0.893   6.409 -0.0198 -0.3198  0.0355
  744SOL    HW1 3673   3.151   0.982   6.423 -0.4052 -0.1972 -1.3917
  744SOL    HW2 3674   3.259   0.885   6.465  2.0798  2.0976 -2.2369
  745SOL     OW 3675   6.865   0.862   7.030  0.0241 -0.2980 -0.0509
  745SOL    HW1 3676   6.905   0.810   7.101  1.0191  0.3309 -0.1384
  745SOL    HW2 3677   6.872   0.952   7.060 -2.4100 -0.1918  0.4582
  746SOL     OW 3678   3.138   2.855   6.321 -0.1107  0.4726  0.1116
  746SOL    HW1 3679   3.217   2.839   6.269  0.3553  3.8833 -0.4613
  746SOL    HW2 3680   3.170   2.867   6.410 -0.4476 -1.3801  0.5245
  747SOL     OW 3681   7.687   7.153   5.879  0.0495 -0.0945  0.3000
  747SOL    HW1 3682   7.767   7.100   5.881 -0.0545 -0.3165 -0.7473
  747SOL    HW2 3683   7.644   7.127   5.798 -1.4914 -0.5619  1.2290
  748SOL     OW 3684   7.822   7.488   6.611 -0.7348  0.2064  0.1549
  748SOL    HW1 3685   7.774   7.531   6.540  0.9892  0.6088 -0.8175
  748SOL    HW2 3686   7.832   7.397   6.583 -1.6902 -0.1140  0.7899
  749SOL     OW 3687   3.280   0.791   6.026 -0.2777  0.7251  0.4582
  749SOL    HW1 3688   3.327   0.853   6.082 -0.2732 -0.2033  1.5281
  749SOL    HW2 3689   3.206   0.763   6.080  0.2329 -0.8843  0.3604
  750SOL     OW 3690   2.486   1.582   6.250 -0.1511  0.4261  0.2883
  750SOL    HW1 3691   2.395   1.604   6.232  0.1527  1.4003 -0.1278
  750SOL    HW2 3692   2.506   1.511   6.188 -1.3277 -1.5736  2.0768
  751SOL     OW 3693   3.183   1.331   4.446 -0.1658  0.1571  0.0574
  751SOL    HW1 3694   3.204   1.352   4.355 -1.1834 -3.0013 -1.0612
  751SOL    HW2 3695   3.209   1.408   4.496  0.9117  1.8055 -2.8329
  752SOL     OW 3696   1.076   0.109   5.406 -0.4974 -0.0074  0.0625
  752SOL    HW1 3697   1.167   0.115   5.377 -0.9227  0.9206 -1.1690
  752SOL    HW2 3698   1.026   0.089   5.327 -1.6428  2.0692  0.1592
  753SOL     OW 3699   0.277   1.239   4.945  0.7026  0.6671 -0.0175
  753SOL    HW1 3700   0.285   1.258   4.851  2.1728 -3.0367 -0.8166
  753SOL    HW2 3701   0.185   1.216   4.956  0.1758  2.5108 -0.1440
  754SOL     OW 3702   1.145   3.097   5.610 -0.2123 -0.3652  0.0569
  754SOL    HW1 3703   1.137   3.020   5.667 -0.5281 -0.9264 -0.7188
  754SOL    HW2 3704   1.232   3.132   5.629  0.1893 -1.2808 -0.0088
  755SOL     OW 3705   1.415   1.354   6.136  0.6066 -0.4321  0.1205
  755SOL    HW1 3706   1.474   1.422   6.169 -1.0726  0.6425  1.0889
  755SOL    HW2 3707   1.363   1.328   6.213 -1.1340 -0.2964 -0.9483
  756SOL     OW 3708   0.445   1.236   5.649 -0.0913  0.1057  0.4450
  756SOL    HW1 3709   0.483   1.270   5.730 -2.2518  0.8481  1.2332
  756SOL    HW2 3710   0.509   1.258   5.581  0.8020  1.3905  1.6548
  757SOL     OW 3711   0.669   6.618   5.501 -0.1191  0.0555 -0.0986
  757SOL    HW1 3712   0.709   6.703   5.485  1.2436 -0.4566  0.4287
  757SOL    HW2 3713   0.644   6.620   5.594  1.1500 -0.5847  0.2746
  758SOL     OW 3714   3.267   3.014   5.917 -0.0230 -0.7657  0.1065
  758SOL    HW1 3715   3.305   3.070   5.850  0.5556 -1.0562  0.1911
  758SOL    HW2 3716   3.208   2.955   5.868 -0.9587  0.1744  0.0692
  759SOL     OW 3717   3.074   7.962   6.725 -0.2163  0.3353 -0.4147
  759SOL    HW1 3718   2.989   7.988   6.688 -0.1129 -0.1994 -1.0499
  759SOL    HW2 3719   3.077   8.005   6.810 -1.5722 -0.4443  0.0641
  760SOL     OW 3720   1.504   6.722   5.911  0.0944 -0.3273 -0.2091
  760SOL    HW1 3721   1.412   6.720   5.938  0.3199 -1.2551  0.5361
  760SOL    HW2 3722   1.526   6.815   5.908 -1.6213  0.1056 -3.1325
  761SOL     OW 3723   1.828   2.047   7.175  0.0576  0.1721  0.0728
  761SOL    HW1 3724   1.811   2.132   7.135 -1.7144  0.3515  1.0638
  761SOL    HW2 3725   1.923   2.042   7.183  0.2874  1.2636 -1.6407
  762SOL     OW 3726   1.919   0.888   5.822 -0.2193 -0.4319 -0.1162
  762SOL    HW1 3727   1.993   0.943   5.796 -1.1592  0.2310 -1.5181
  762SOL    HW2 3728   1.891   0.924   5.906 -0.1813  0.6053 -0.5297
  763SOL     OW 3729   1.595   1.336   5.298 -0.5191  0.0347  0.6825
  763SOL    HW1 3730   1.595   1.247   5.331 -0.4895  0.1979  1.1260
  763SOL    HW2 3731   1.558   1.329   5.210 -0.0420 -0.4864  0.5176
  764SOL     OW 3732   2.093   7.928   5.273 -0.1232  0.6570  0.0788
  764SOL    HW1 3733   2.047   7.851   5.308  0.6775  0.2930  0.3736
  764SOL    HW2 3734   2.025   7.982   5.236 -0.5375 -1.2004 -2.1035
  765SOL     OW 3735   2.106   0.878   5.366  0.1133  0.1873  0.8739
  765SOL    HW1 3736   2.047   0.880   5.441 -0.2405 -1.2900  0.6780
  765SOL    HW2 3737   2.051   0.906   5.292 -0.3846 -1.1083  0.7054
  766SOL     OW 3738   0.242   6.494   9.374  0.3307  0.1638 -0.0091
  766SOL    HW1 3739   0.288   6.576   9.389  0.9107 -0.3326  1.0257
  766SOL    HW2 3740   0.271   6.437   9.444 -0.3218 -0.8273 -0.5198
  767SOL     OW 3741   3.082   1.891   6.166 -0.0866 -0.1873  0.2714
  767SOL    HW1 3742   3.158   1.876   6.111  0.1674 -2.3085  1.1124
  767SOL    HW2 3743   3.103   1.971   6.215  0.6931  0.3793 -0.9313
  768SOL     OW 3744   0.890   1.381   7.490 -0.4853 -0.1102  0.1416
  768SOL    HW1 3745   0.867   1.405   7.401 -0.4163  1.2867  0.4767
  768SOL    HW2 3746   0.923   1.292   7.484 -1.3658 -0.3739 -1.0818
  769SOL     OW 3747   2.237   0.224   6.564 -0.2432 -0.5296 -0.5484
  769SOL    HW1 3748   2.262   0.135   6.585 -0.5589 -0.0480  2.1742
  769SOL    HW2 3749   2.142   0.222   6.561 -0.2920 -0.1439  0.3960
  770SOL     OW 3750   0.821   0.995   8.631 -0.1616 -0.5218 -0.9435
  770SOL    HW1 3751   0.795   0.941   8.706  1.6452 -0.0586  0.0889
  770SOL    HW2 3752   0.755   1.063   8.626  0.4761  0.3371  1.2596
  771SOL     OW 3753   1.700   7.790   7.622  0.4997  0.9512 -0.0985
  771SOL    HW1 3754   1.633   7.826   7.564 -1.0507  1.3238  1.8190
  771SOL    HW2 3755   1.666   7.804   7.711  3.0996  1.0766  0.9706
  772SOL     OW 3756   2.547   0.725   6.230 -0.2884  0.5053  0.3447
  772SOL    HW1 3757   2.533   0.684   6.144 -1.4154  0.4604  0.5254
  772SOL    HW2 3758   2.500   0.809   6.224  0.8500  1.1602  0.4359
  773SOL     OW 3759   1.261   7.302   7.873  0.2864  0.1962 -1.0289
  773SOL    HW1 3760   1.193   7.242   7.905  1.0526 -0.0117  0.2816
  773SOL    HW2 3761   1.258   7.375   7.934  0.0535  1.0381 -2.0246
  774SOL     OW 3762   1.710   7.266   6.521  0.1635  0.1059  0.0354
  774SOL    HW1 3763   1.670   7.301   6.600 -0.0220  0.0594 -0.0355
  774SOL    HW2 3764   1.635   7.236   6.468  0.1157  2.1110 -1.1214
  775SOL     OW 3765   7.445   0.778   8.010  0.0545  0.3520  0.1389
  775SOL    HW1 3766   7.418   0.870   8.012 -1.1399  0.0798 -1.7224
  775SOL    HW2 3767   7.541   0.782   8.001 -0.1699  1.5360 -3.0365
  776SOL     OW 3768   0.709   2.475   7.995  0.2338  0.3855 -0.4396
  776SOL    HW1 3769   0.650   2.411   8.037  1.3481  0.6229  1.6588
  776SOL    HW2 3770   0.682   2.559   8.031  1.3329  0.5782 -0.0080
  777SOL     OW 3771   1.787   1.160   6.248  0.1045  0.1860  0.1711
  777SOL    HW1 3772   1.694   1.136   6.245  0.6318 -2.0486  0.1022
  777SOL    HW2 3773   1.807   1.170   6.341 -0.1823  0.6814  0.1850
  778SOL     OW 3774   1.625   1.637   5.031  0.0410  0.3659 -0.0673
  778SOL    HW1 3775   1.529   1.642   5.036  0.0455 -0.6404  2.0299
  778SOL    HW2 3776   1.656   1.687   5.106  1.3385  2.9749 -2.1683
  779SOL     OW 3777   2.997   6.803   5.510 -0.0187 -0.8726 -0.4633
  779SOL    HW1 3778   3.083   6.766   5.489  1.4714  1.0175  1.8009
  779SOL    HW2 3779   2.989   6.878   5.452  0.3790 -0.4180  0.0603
  780SOL     OW 3780   0.341   0.901   6.447  0.1914 -0.0330  0.5497
  780SOL    HW1 3781   0.321   0.811   6.422  0.4728 -0.2600  1.1242
  780SOL    HW2 3782   0.380   0.939   6.368 -0.6980 -0.1511  0.0355
  781SOL     OW 3783   7.800   2.417   6.634  0.1937 -0.4959  0.2177
  781SOL    HW1 3784   7.759   2.499   6.661  2.2800  0.7811 -0.2360
  781SOL    HW2 3785   7.783   2.356   6.705  0.2919  0.9438  1.5235
  782SOL     OW 3786   0.996   1.210   8.579  0.7376 -0.2440 -0.0632
  782SOL    HW1 3787   0.963   1.127   8.612  1.9814 -0.6427  0.2495
  782SOL    HW2 3788   1.076   1.187   8.532  2.7866  1.0210  2.5279
  783SOL     OW 3789   7.778   0.358   6.704  0.5089  0.2386 -0.1939
  783SOL    HW1 3790   7.771   0.280   6.758 -0.7524 -0.8618 -1.8299
  783SOL    HW2 3791   7.743   0.332   6.619 -0.9555  2.8700 -0.5244
  784SOL     OW 3792   0.411   1.887   8.973  0.3204  0.2120  0.0231
  784SOL    HW1 3793   0.468   1.847   8.907  0.4529  0.7752 -0.2093
  784SOL    HW2 3794   0.470   1.927   9.036  0.1961 -0.5272  0.6216
  785SOL     OW 3795   0.933   6.724   8.859  0.0341 -0.2620  0.0452
  785SOL    HW1 3796   0.918   6.650   8.802 -0.1199 -0.5266  0.4252
  785SOL    HW2 3797   0.995   6.693   8.925  0.7933  0.2614 -0.4052
  786SOL     OW 3798   2.621   7.886   7.223  0.4094  0.1590  0.2189
  786SOL    HW1 3799   2.684   7.915   7.289 -0.4951  0.4036  0.9947
  786SOL    HW2 3800   2.660   7.807   7.186  1.0601  0.1696  0.8541
  787SOL     OW 3801   1.885   7.606   8.561  0.0451 -0.3479  0.3088
  787SOL    HW1 3802   1.936   7.668   8.508  1.1053 -1.6134 -0.2023
  787SOL    HW2 3803   1.812   7.658   8.595  0.3252  0.9219 -0.9466
  788SOL     OW 3804   0.840   0.812   6.244 -0.1801  0.0395  0.1385
  788SOL    HW1 3805   0.842   0.798   6.339  0.5794  1.0778  0.2879
  788SOL    HW2 3806   0.930   0.797   6.215 -0.0803  1.1636 -0.1848
  789SOL     OW 3807   7.410   6.531   6.019  0.2177  0.0234  0.4406
  789SOL    HW1 3808   7.436   6.460   6.079 -0.6035 -1.2016 -0.5957
  789SOL    HW2 3809   7.319   6.511   5.997  0.3722  0.6809 -0.8623
  790SOL     OW 3810   7.964   0.068   6.937  0.3259 -0.0686  0.1431
  790SOL    HW1 3811   8.012   0.046   6.857  0.1080 -1.1967  0.3019
  790SOL    HW2 3812   7.872   0.070   6.911  0.3347  0.6382  0.1461
  791SOL     OW 3813   2.771   7.240   4.772 -0.0482  0.6877 -0.0680
  791SOL    HW1 3814   2.771   7.299   4.696  1.2641 -0.1889 -0.7862
  791SOL    HW2 3815   2.842   7.178   4.754 -1.8610 -1.6424  0.2417
  792SOL     OW 3816   1.193   1.740   9.903  0.3673  0.1089  0.0325
  792SOL    HW1 3817   1.172   1.802   9.973 -0.6481  0.0321 -0.1895
  792SOL    HW2 3818   1.237   1.792   9.836  0.3676  0.3959  0.2568
  793SOL     OW 3819   6.837   6.774   6.606 -0.1623 -0.1409  0.4065
  793SOL    HW1 3820   6.779   6.848   6.629 -1.3026 -0.7344 -0.4755
  793SOL    HW2 3821   6.784   6.718   6.550  1.3079 -0.6832 -0.5069
  794SOL     OW 3822   7.489   0.128   5.876  0.6767  0.0459 -0.4857
  794SOL    HW1 3823   7.473   0.200   5.816  2.1194  0.7965 -0.0230
  794SOL    HW2 3824   7.527   0.059   5.822  0.8951  0.2921 -0.6500
  795SOL     OW 3825   1.647   1.732   8.313 -0.1253  0.0286  0.4915
  795SOL    HW1 3826   1.688   1.679   8.245 -0.5430 -0.5811  0.7062
  795SOL    HW2 3827   1.617   1.811   8.267 -0.4114 -0.3809 -0.0399
  796SOL     OW 3828   0.612   1.247   7.274 -0.2572  0.3050 -0.2893
  796SOL    HW1 3829   0.650   1.194   7.344 -0.5944 -0.2159 -0.4922
  796SOL    HW2 3830   0.630   1.337   7.300  0.4945  0.0919 -0.0365
  797SOL     OW 3831   1.584   1.298   7.354  0.0731 -0.3204  0.0141
  797SOL    HW1 3832   1.653   1.364   7.349 -0.1522 -0.0102  0.8453
  797SOL    HW2 3833   1.504   1.348   7.374 -0.4284 -0.6591 -1.0574
  798SOL     OW 3834   0.926   0.244   7.829  0.0044 -0.1519 -0.3724
  798SOL    HW1 3835   0.870   0.310   7.869 -1.1708  0.0472 -2.2843
  798SOL    HW2 3836   0.884   0.161   7.852 -1.0219 -0.0121 -1.6384
  799SOL     OW 3837   2.992   0.761   5.136 -0.3720 -1.0082 -0.2550
  799SOL    HW1 3838   3.019   0.713   5.215  0.8980  0.2099  0.1003
  799SOL    HW2 3839   3.075   0.783   5.093 -0.9097  0.6241 -0.5292
  800SOL     OW 3840   2.963   0.557   4.521 -0.7718  0.3004  0.1657
  800SOL    HW1 3841   2.972   0.575   4.615 -0.0346  1.7414 -0.1523
  800SOL    HW2 3842   2.872   0.531   4.510 -0.8416  0.0201  1.2988
  801SOL     OW 3843   0.969   2.152   7.629  0.9758 -0.7359 -0.1903
  801SOL    HW1 3844   0.966   2.057   7.620  0.6024 -0.6272 -1.2946
  801SOL    HW2 3845   0.879   2.178   7.644  0.5847 -0.3222 -2.7529
  802SOL     OW 3846   2.523   7.601   6.464  0.0001 -0.5352 -0.1520
  802SOL    HW1 3847   2.501   7.539   6.533  2.7508 -0.7544  0.6456
  802SOL    HW2 3848   2.556   7.546   6.392 -1.2994 -0.2004 -1.0423
  803SOL     OW 3849   0.978   7.120   7.641 -0.2214 -0.0435 -0.3919
  803SOL    HW1 3850   0.954   7.148   7.553  0.1582  0.5736 -0.3003
  803SOL    HW2 3851   0.907   7.060   7.666 -1.1477  0.9572 -0.5234
  804SOL     OW 3852   2.134   1.781   8.043 -0.9025  0.2597 -0.1164
  804SOL    HW1 3853   2.172   1.856   8.087 -1.2485  0.7066 -0.5665
  804SOL    HW2 3854   2.203   1.748   7.985  0.0424 -1.1684  1.6998
  805SOL     OW 3855   7.530   1.326   5.246  0.2973  0.5626 -0.4294
  805SOL    HW1 3856   7.541   1.259   5.179 -0.8277  0.0868 -0.1665
  805SOL    HW2 3857   7.476   1.284   5.313  1.1242  1.1360  0.6272
  806SOL     OW 3858   1.196   1.620   5.759 -0.4083 -0.4929 -0.6873
  806SOL    HW1 3859   1.194   1.543   5.701  0.3488 -2.2827  1.5050
  806SOL    HW2 3860   1.255   1.595   5.829 -1.3243  1.5501  0.9136
  807SOL     OW 3861   1.838   1.303   6.810  0.0943  0.2402 -0.3267
  807SOL    HW1 3862   1.918   1.314   6.861 -0.3960 -1.1991  0.8310
  807SOL    HW2 3863   1.784   1.244   6.863 -0.9058 -0.4340 -2.0266
  808SOL     OW 3864   1.386   6.771   6.234 -0.0060  0.1800  0.0132
  808SOL    HW1 3865   1.322   6.836   6.207 -2.3846 -2.0535 -0.1124
  808SOL    HW2 3866   1.457   6.778   6.170 -0.9959  1.4577 -0.9892
  809SOL     OW 3867   2.324   1.929   6.525 -0.1312 -0.7265  0.3804
  809SOL    HW1 3868   2.410   1.943   6.485  0.6515 -2.0286  1.5408
  809SOL    HW2 3869   2.294   2.017   6.549  0.1814 -0.1018 -1.3689
  810SOL     OW 3870   1.690   0.893   6.923 -0.1364 -0.4121 -0.3902
  810SOL    HW1 3871   1.723   0.833   6.856 -1.2023 -0.4294 -0.9206
  810SOL    HW2 3872   1.595   0.895   6.908 -0.2286  0.5960  0.2878
  811SOL     OW 3873   7.416   7.535   6.659  0.1675 -0.4770 -0.5290
  811SOL    HW1 3874   7.494   7.486   6.632 -0.3005 -1.4735 -0.0939
  811SOL    HW2 3875   7.352   7.518   6.589  0.6427  1.1818 -1.4305
  812SOL     OW 3876   1.643   1.233   4.381 -0.6286 -0.3332 -0.4607
  812SOL    HW1 3877   1.603   1.310   4.340  0.3003  0.4477  0.0532
  812SOL    HW2 3878   1.736   1.255   4.387 -0.9375  0.8895  4.6479
  813SOL     OW 3879   3.457   0.691   6.269 -0.2593  0.2114 -0.4011
  813SOL    HW1 3880   3.501   0.680   6.353  1.3907  0.1098 -1.2342
  813SOL    HW2 3881   3.370   0.724   6.291  0.3806  0.8601  1.2936
  814SOL     OW 3882   2.198   0.022   5.707 -0.0888 -0.4789  0.5036
  814SOL    HW1 3883   2.163  -0.059   5.670  0.7537 -0.2924 -0.7516
  814SOL    HW2 3884   2.222   0.075   5.631 -1.6966  1.4607  1.2585
  815SOL     OW 3885   1.249   1.617   8.050  0.4714 -0.4422  0.1804
  815SOL    HW1 3886   1.297   1.693   8.081  0.2945  0.4724 -1.6527
  815SOL    HW2 3887   1.159   1.631   8.081  0.5278 -0.1234  0.2029
  816SOL     OW 3888   1.702   1.482   7.705  0.3722  0.1252  0.2322
  816SOL    HW1 3889   1.763   1.423   7.661  0.8022  1.4799 -1.1055
  816SOL    HW2 3890   1.757   1.554   7.736 -0.5230  1.5190 -1.2670
  817SOL     OW 3891   0.405   0.549   5.157 -0.1707 -0.2508  0.3435
  817SOL    HW1 3892   0.429   0.529   5.248 -0.5522 -1.8339  0.1199
  817SOL    HW2 3893   0.387   0.464   5.118  0.1100  0.3982 -1.2631
  818SOL     OW 3894   2.270   0.696   6.591  0.2504 -0.0833  0.0157
  818SOL    HW1 3895   2.359   0.686   6.559  0.3690  0.3451  0.1977
  818SOL    HW2 3896   2.215   0.655   6.525  0.5365  0.2028 -0.3983
  819SOL     OW 3897   0.495   0.941   7.274 -0.0059 -0.1802  0.1650
  819SOL    HW1 3898   0.510   0.872   7.210  1.7679  0.1421  0.1928
  819SOL    HW2 3899   0.442   0.899   7.342 -1.3484 -0.7036 -1.1579
  820SOL     OW 3900   2.238   0.331   3.806  0.2761 -0.1201  0.1131
  820SOL    HW1 3901   2.329   0.302   3.795  0.5298 -1.0169  3.4181
  820SOL    HW2 3902   2.245   0.421   3.836  0.0654 -0.1075  0.1243
  821SOL     OW 3903   2.102   0.488   5.661  0.0502  0.0539 -0.0377
  821SOL    HW1 3904   2.174   0.460   5.605 -0.9479 -1.0489 -0.8208
  821SOL    HW2 3905   2.141   0.497   5.747  1.0649 -0.8251 -0.3793
  822SOL     OW 3906   0.621   2.194   5.764 -0.2600  0.4815  0.4495
  822SOL    HW1 3907   0.654   2.110   5.733  0.0930 -0.0711  2.2222
  822SOL    HW2 3908   0.548   2.214   5.705  0.3440 -0.5149 -0.6757
  823SOL     OW 3909   0.418   1.234   7.777 -0.3783 -0.2932 -0.2630
  823SOL    HW1 3910   0.356   1.270   7.841 -0.2284 -0.1114 -0.2185
  823SOL    HW2 3911   0.480   1.183   7.830 -1.2154 -1.5272 -0.4316
  824SOL     OW 3912   0.381   3.238   6.291 -0.6411  0.0311  0.0043
  824SOL    HW1 3913   0.354   3.289   6.214  0.9422  0.1784 -0.4996
  824SOL    HW2 3914   0.473   3.218   6.275  0.1220  1.1599  2.4472
  825SOL     OW 3915   1.848   0.447   6.049 -0.2429 -0.3528 -0.5088
  825SOL    HW1 3916   1.849   0.452   6.144  2.4473 -0.2737 -0.4684
  825SOL    HW2 3917   1.786   0.515   6.022 -0.2139  0.3881  1.1515
  826SOL     OW 3918   1.880   2.194   6.247 -0.0605  0.3253  0.0247
  826SOL    HW1 3919   1.887   2.116   6.303  1.3500  0.2452 -0.2233
  826SOL    HW2 3920   1.786   2.209   6.239 -0.3235 -0.4595  1.3102
  827SOL     OW 3921   1.308   0.826   7.656  0.6513  0.2641 -0.1409
  827SOL    HW1 3922   1.247   0.807   7.584  1.2748 -0.9136 -0.3909
  827SOL    HW2 3923   1.293   0.918   7.677 -0.8675  0.1260 -0.5169
  828SOL     OW 3924   2.955   7.634   7.634 -0.3197  0.1142  0.5462
  828SOL    HW1 3925   2.867   7.627   7.597  0.7467 -1.5536 -1.9471
  828SOL    HW2 3926   2.992   7.712   7.594  0.3671 -0.9539 -1.0272
  829SOL     OW 3927   1.953   0.508   6.899  0.0240 -0.0967  0.2278
  829SOL    HW1 3928   1.916   0.579   6.951  1.4637  0.8454  0.0140
  829SOL    HW2 3929   1.947   0.539   6.808  0.9239 -0.1195  0.1551
  830SOL     OW 3930   2.119   1.627   4.894 -0.7134  0.0978 -0.3072
  830SOL    HW1 3931   2.103   1.658   4.983 -1.1551 -2.8582  0.7656
  830SOL    HW2 3932   2.210   1.596   4.895 -1.1956 -1.4074 -0.3454
  831SOL     OW 3933   0.945   1.377   7.786  0.1200 -0.3448  0.3173
  831SOL    HW1 3934   0.923   1.406   7.698  0.1717  1.5965  0.8849
  831SOL    HW2 3935   0.952   1.282   7.780 -1.5603 -0.4055 -1.3803
  832SOL     OW 3936   1.191   0.025   5.969 -0.2905 -0.2095  0.5054
  832SOL    HW1 3937   1.238   0.039   5.886 -1.4572 -1.1583 -0.3551
  832SOL    HW2 3938   1.243   0.072   6.034  1.0694 -0.0573 -0.6360
  833SOL     OW 3939   2.444   0.005   4.798  0.3830 -0.0809  0.3081
  833SOL    HW1 3940   2.408   0.077   4.850 -0.1670 -0.8856  1.0523
  833SOL    HW2 3941   2.459   0.044   4.712 -1.5490  0.5027  0.1765
  834SOL     OW 3942   0.668   0.733   4.484 -0.2703 -0.2691  0.1161
  834SOL    HW1 3943   0.575   0.748   4.465  0.3028  0.4345 -2.4327
  834SOL    HW2 3944   0.712   0.812   4.452  1.4480 -1.6638 -1.1492
  835SOL     OW 3945   7.708   0.921   7.349 -0.3229  0.1763 -0.3845
  835SOL    HW1 3946   7.765   0.990   7.315 -0.5294 -0.0025 -1.1113
  835SOL    HW2 3947   7.653   0.965   7.413  0.2036  0.4814 -0.1326
  836SOL     OW 3948   2.328   7.750   5.258 -1.1111  0.2420  0.2272
  836SOL    HW1 3949   2.250   7.804   5.247 -0.6058  0.9282 -0.0196
  836SOL    HW2 3950   2.363   7.776   5.344  0.7498  2.4612 -1.0994
  837SOL     OW 3951   4.024   1.406   5.342  0.6152  0.2097  0.2050
  837SOL    HW1 3952   4.104   1.392   5.291  0.6567  1.2025 -0.0202
  837SOL    HW2 3953   4.009   1.500   5.338  2.0246  0.7425  4.1712
  838SOL     OW 3954   2.101   0.649   7.113  0.1871 -0.0490  0.1959
  838SOL    HW1 3955   2.120   0.623   7.203  0.5635 -0.7968 -0.0880
  838SOL    HW2 3956   2.005   0.651   7.109  0.0736 -2.3711  0.0117
  839SOL     OW 3957   1.121   1.815   8.457 -0.2901  0.7638  0.2772
  839SOL    HW1 3958   1.213   1.788   8.466 -0.1307  0.4956 -1.7402
  839SOL    HW2 3959   1.075   1.734   8.435 -1.1024  0.8369  1.5919
  840SOL     OW 3960   1.697   0.496   7.165  0.4951 -0.6247 -0.0337
  840SOL    HW1 3961   1.742   0.412   7.165  0.3273 -0.7180 -0.7042
  840SOL    HW2 3962   1.604   0.474   7.168  0.4692 -0.4473  0.5543
  841SOL     OW 3963   2.175   7.260   6.773  0.2780  0.1206 -0.2331
  841SOL    HW1 3964   2.187   7.263   6.868 -0.4669  2.4361 -0.1708
  841SOL    HW2 3965   2.081   7.262   6.759  0.3903  1.1154 -1.0187
  842SOL     OW 3966   1.234   2.057   7.183  0.6267  0.5048 -0.2360
  842SOL    HW1 3967   1.215   1.976   7.230  1.8880  0.8413  0.9105
  842SOL    HW2 3968   1.294   2.031   7.113  0.1158  0.2873 -0.6058
  843SOL     OW 3969   2.676   7.554   5.444 -0.0157  1.0397 -0.1741
  843SOL    HW1 3970   2.592   7.587   5.477  0.4266  1.6582  0.3607
  843SOL    HW2 3971   2.653   7.501   5.368 -0.8665  1.4129 -0.1854
  844SOL     OW 3972   7.769   1.534   6.050  0.0976 -0.0617  0.1352
  844SOL    HW1 3973   7.681   1.568   6.035  1.3625  4.0186  0.8750
  844SOL    HW2 3974   7.776   1.527   6.145  1.0747  1.4251  0.2080
  845SOL     OW 3975   0.520   0.252   6.884  0.6319  0.5198 -0.0071
  845SOL    HW1 3976   0.484   0.164   6.882  0.1348  0.7313 -1.2392
  845SOL    HW2 3977   0.578   0.257   6.808  0.8018  1.1930  0.1529
  846SOL     OW 3978   1.185   7.915   5.606  0.5322 -0.1289  0.5784
  846SOL    HW1 3979   1.239   7.893   5.531 -0.0396  0.7173 -0.1073
  846SOL    HW2 3980   1.142   7.997   5.581  1.5198  1.0354  2.4507
  847SOL     OW 3981   3.505   2.562   5.236  0.0215 -0.2351 -0.3638
  847SOL    HW1 3982   3.587   2.611   5.229  0.8606 -1.5560  0.0576
  847SOL    HW2 3983   3.451   2.597   5.164  0.7993  0.8871 -0.4372
  848SOL     OW 3984   0.634   0.556   6.227 -0.2779  0.1817 -0.2326
  848SOL    HW1 3985   0.606   0.561   6.136  1.4016 -0.7504 -0.8529
  848SOL    HW2 3986   0.725   0.526   6.223 -0.2814 -0.2984  1.7645
  849SOL     OW 3987   3.767   0.773   8.516 -0.8157 -0.5864  0.1536
  849SOL    HW1 3988   3.789   0.791   8.607  1.5354 -1.7446 -0.1196
  849SOL    HW2 3989   3.678   0.807   8.506 -0.5625  0.9524  2.4352
  850SOL     OW 3990   7.391   3.039   5.693  0.0832  0.4024 -0.0582
  850SOL    HW1 3991   7.421   3.064   5.780  1.7068 -0.4038 -0.3449
  850SOL    HW2 3992   7.408   3.116   5.638  0.3630  0.4211  0.0568
  851SOL     OW 3993   2.481   0.660   5.957  0.0020  0.9017 -0.2009
  851SOL    HW1 3994   2.571   0.658   5.924 -0.1633  2.3061 -0.8030
  851SOL    HW2 3995   2.429   0.693   5.883 -0.9917  0.2135  0.1782
  852SOL     OW 3996   0.824   1.331   8.952  0.2825 -0.1118  0.0055
  852SOL    HW1 3997   0.753   1.384   8.988  0.1723  1.8083 -2.7224
  852SOL    HW2 3998   0.819   1.248   9.000 -2.2520  0.8400  1.5568
  853SOL     OW 3999   0.764   0.048   7.123 -0.2143 -0.4868  0.5161
  853SOL    HW1 4000   0.771   0.006   7.037  0.1420  0.0214  0.2892
  853SOL    HW2 4001   0.693   0.002   7.167 -1.1398 -0.0322 -0.4726
  854SOL     OW 4002   0.434   2.161   7.818 -0.0311  0.2192  0.5450
  854SOL    HW1 4003   0.409   2.070   7.805  1.4162 -0.1732  0.3505
  854SOL    HW2 4004   0.457   2.192   7.730 -1.0428  0.9532  0.5230
  855SOL     OW 4005   1.678   6.590   5.393 -0.0864 -0.4519 -0.1426
  855SOL    HW1 4006   1.701   6.610   5.484  0.3517 -0.4151 -0.2576
  855SOL    HW2 4007   1.634   6.505   5.398 -0.1659 -0.3973  0.1166
  856SOL     OW 4008   1.675   7.214   4.859 -1.1588 -0.0520 -0.0230
  856SOL    HW1 4009   1.721   7.146   4.811 -0.0795 -0.4628  1.5327
  856SOL    HW2 4010   1.594   7.172   4.889 -0.5309 -0.6528  0.8691
  857SOL     OW 4011   1.332   2.272   4.724 -0.5683 -0.5129 -0.1998
  857SOL    HW1 4012   1.318   2.278   4.630 -1.9404  3.5269  0.0488
  857SOL    HW2 4013   1.420   2.306   4.737 -0.0733 -1.8020 -0.0047
  858SOL     OW 4014   2.764   6.775   7.391 -0.4669  0.4096  0.4400
  858SOL    HW1 4015   2.674   6.790   7.421 -0.0496 -0.0842  1.9954
  858SOL    HW2 4016   2.755   6.712   7.320 -1.5080  1.9261 -0.8567
  859SOL     OW 4017   2.612   2.673   6.417 -0.2735  0.2370  0.1994
  859SOL    HW1 4018   2.627   2.688   6.511 -0.6696 -0.8288  0.4492
  859SOL    HW2 4019   2.654   2.748   6.374  0.2246  0.5607  1.2074
  860SOL     OW 4020   2.730   1.326   5.378 -0.2057  0.8625  0.2088
  860SOL    HW1 4021   2.655   1.285   5.335 -2.7286  2.7164  2.4672
  860SOL    HW2 4022   2.770   1.256   5.430  0.8584 -0.5728 -2.3863
  861SOL     OW 4023   0.030   1.416   6.196  0.0868 -0.3114 -0.4215
  861SOL    HW1 4024   0.030   1.378   6.108 -0.9145 -2.7819  0.5611
  861SOL    HW2 4025  -0.060   1.408   6.226  0.9001 -2.2970  1.8638
  862SOL     OW 4026   1.603   7.955   5.933 -0.2030  0.6212 -0.2053
  862SOL    HW1 4027   1.630   8.022   5.997  2.1702 -1.8606  1.6077
  862SOL    HW2 4028   1.617   7.997   5.848  0.8722  2.5652  0.8416
  863SOL     OW 4029   2.153   1.147   5.013 -0.4984  0.3727  0.8560
  863SOL    HW1 4030   2.102   1.114   5.087  0.0710 -1.4274  0.4964
  863SOL    HW2 4031   2.166   1.070   4.957  1.8597  0.9454  0.5288
  864SOL     OW 4032   0.293   1.253   7.251 -0.6800 -0.3241 -0.1871
  864SOL    HW1 4033   0.308   1.334   7.202 -0.1222  0.2027  0.8281
  864SOL    HW2 4034   0.246   1.280   7.329 -0.0946 -0.9079  0.3813
  865SOL     OW 4035   1.394   1.650   7.639  0.0716  0.2474  0.3176
  865SOL    HW1 4036   1.334   1.660   7.565  0.2925  0.3308  0.1462
  865SOL    HW2 4037   1.338   1.630   7.713 -0.1970  0.6336  0.2215
  866SOL     OW 4038   2.488   1.344   5.587  0.0348 -0.7555 -0.1153
  866SOL    HW1 4039   2.457   1.380   5.504  0.2819 -0.1188  0.0628
  866SOL    HW2 4040   2.564   1.397   5.610  0.2385 -1.2123  0.2998
  867SOL     OW 4041   0.464   6.379   8.091 -0.4533 -0.1299  0.2641
  867SOL    HW1 4042   0.395   6.313   8.083  0.5813 -1.4257  1.5391
  867SOL    HW2 4043   0.545   6.331   8.074  0.5252  0.2456  3.2697
  868SOL     OW 4044   1.731   2.341   6.718  0.0413  0.2264 -0.2170
  868SOL    HW1 4045   1.819   2.327   6.683  0.2264 -0.3228  0.4469
  868SOL    HW2 4046   1.676   2.282   6.667 -0.0528  0.9981 -1.0365
  869SOL     OW 4047   2.922   0.967   7.525  0.1013 -0.1444 -0.0335
  869SOL    HW1 4048   2.842   1.012   7.553  1.0938  0.0084  2.8841
  869SOL    HW2 4049   2.977   1.036   7.489 -0.1090  0.2197  0.3284
  870SOL     OW 4050   2.267   0.668   4.640 -0.1346 -0.3769 -0.2668
  870SOL    HW1 4051   2.326   0.617   4.585  0.2832  0.2456 -0.4025
  870SOL    HW2 4052   2.323   0.703   4.709 -0.6122 -0.9594  0.4327
  871SOL     OW 4053   1.687   2.183   6.979  0.3778  0.7454  0.1770
  871SOL    HW1 4054   1.743   2.256   6.953  0.4363  0.9598  0.8958
  871SOL    HW2 4055   1.660   2.144   6.896  0.6949  1.3154 -0.2059
  872SOL     OW 4056   2.858   1.562   4.855  0.0933  0.2843 -0.1760
  872SOL    HW1 4057   2.930   1.547   4.917 -0.1186  0.2702  0.0647
  872SOL    HW2 4058   2.892   1.629   4.796  0.6185 -0.3048 -0.5654
  873SOL     OW 4059   0.146   1.388   6.871 -0.4530 -0.0138 -0.2849
  873SOL    HW1 4060   0.104   1.309   6.839 -2.0735  1.1234 -1.1455
  873SOL    HW2 4061   0.160   1.441   6.792  0.6918  0.5204  0.2546
  874SOL     OW 4062   2.348   2.422   5.356  0.2210 -0.0762  0.2775
  874SOL    HW1 4063   2.302   2.384   5.281  0.7038 -1.0788  0.4598
  874SOL    HW2 4064   2.308   2.508   5.368  0.4054  0.2882 -1.3831
  875SOL     OW 4065   0.251   2.779   6.896  0.5253  0.0670 -0.5123
  875SOL    HW1 4066   0.184   2.735   6.844 -0.3922  0.9050 -0.0784
  875SOL    HW2 4067   0.272   2.858   6.846  0.5531  0.2345 -0.2413
  876SOL     OW 4068   1.305   7.483   5.743  0.3377 -0.0436  0.1501
  876SOL    HW1 4069   1.368   7.552   5.759 -0.6613  1.1769 -0.8799
  876SOL    HW2 4070   1.356   7.402   5.741  1.5280  0.6520  1.3843
  877SOL     OW 4071   0.463   0.865   6.722  0.5999 -0.3085  0.4358
  877SOL    HW1 4072   0.388   0.859   6.663 -0.1072  0.1478  1.2636
  877SOL    HW2 4073   0.449   0.794   6.785  0.1288  0.6135  1.3928
  878SOL     OW 4074   0.698   1.389   4.725 -0.0395 -0.0627 -0.1400
  878SOL    HW1 4075   0.667   1.479   4.717 -1.0260 -0.4758 -1.3557
  878SOL    HW2 4076   0.618   1.336   4.724  0.3147 -0.8702  3.1892
  879SOL     OW 4077   6.709   1.397   6.481 -0.3744  0.2878  0.0502
  879SOL    HW1 4078   6.690   1.368   6.570 -0.6645  0.7684  0.1516
  879SOL    HW2 4079   6.635   1.453   6.458 -0.5677 -0.2467 -0.6887
  880SOL     OW 4080   7.435   0.361   7.663 -0.0556 -0.3669  0.3175
  880SOL    HW1 4081   7.525   0.392   7.652  0.0631 -0.3421  1.3050
  880SOL    HW2 4082   7.439   0.268   7.638 -0.3668  0.2571 -2.4150
  881SOL     OW 4083   6.850   0.590   9.079  0.3086  0.2003  0.0241
  881SOL    HW1 4084   6.833   0.656   9.011 -1.4533  0.3008  0.4986
  881SOL    HW2 4085   6.945   0.585   9.084  0.5043  2.2532 -0.4635
  882SOL     OW 4086   1.284   6.641   8.531  0.7477 -0.1249 -0.1113
  882SOL    HW1 4087   1.357   6.581   8.514  0.1206 -1.0531  0.3694
  882SOL    HW2 4088   1.281   6.649   8.626  0.5246  0.2968 -0.1508
  883SOL     OW 4089   1.805   2.123   9.300  0.0356 -0.3204  0.4435
  883SOL    HW1 4090   1.836   2.184   9.367 -1.2678 -1.0573  1.7613
  883SOL    HW2 4091   1.711   2.116   9.315 -0.6569  0.8060 -2.5596
  884SOL     OW 4092   2.729   1.192   7.506 -0.1518 -0.2140 -0.1679
  884SOL    HW1 4093   2.729   1.263   7.570 -2.2348  1.4100 -1.8635
  884SOL    HW2 4094   2.647   1.145   7.522  1.0922 -2.2524  0.7978
  885SOL     OW 4095   7.753   1.416   7.397 -0.8421 -0.0049 -0.1086
  885SOL    HW1 4096   7.669   1.399   7.355 -0.9225 -1.8082  0.7011
  885SOL    HW2 4097   7.757   1.511   7.406 -2.0867  0.2204 -1.5447
  886SOL     OW 4098   2.970   1.023   9.245  0.1575 -0.1912  0.0290
  886SOL    HW1 4099   2.919   0.944   9.230 -1.0993  0.4603  0.7109
  886SOL    HW2 4100   2.956   1.076   9.166  0.4670 -0.3633 -0.1436
  887SOL     OW 4101   7.905   2.010   7.140 -0.0073 -0.2859  0.0917
  887SOL    HW1 4102   7.819   1.971   7.123  0.2990 -0.4368 -1.1932
  887SOL    HW2 4103   7.952   1.942   7.189 -0.4679 -0.3697  0.4276
  888SOL     OW 4104   0.886   1.409  10.400  0.2592  0.1033  0.0761
  888SOL    HW1 4105   0.824   1.477  10.374  0.1273 -0.5083 -1.3460
  888SOL    HW2 4106   0.963   1.456  10.431 -0.1426  0.8936 -0.1108
  889SOL     OW 4107   1.454   0.510   8.351 -0.0412  0.4030  0.3291
  889SOL    HW1 4108   1.475   0.443   8.416 -1.0940  0.8491  1.1428
  889SOL    HW2 4109   1.441   0.590   8.402 -0.8925  0.7557 -0.4211
  890SOL     OW 4110   0.681   2.075   8.895  0.0267 -0.0722 -0.0191
  890SOL    HW1 4111   0.701   2.158   8.939  0.4332 -0.1796  0.0012
  890SOL    HW2 4112   0.743   2.013   8.932  1.3110  0.1285 -1.7321
  891SOL     OW 4113   1.166   1.101   8.412  0.2317 -0.4128 -0.0806
  891SOL    HW1 4114   1.180   1.007   8.406  3.5017 -0.0485  0.0638
  891SOL    HW2 4115   1.142   1.127   8.323 -1.1007 -1.3836 -0.0362
  892SOL     OW 4116   1.786   0.834   9.088  0.2881 -0.7504  0.2410
  892SOL    HW1 4117   1.866   0.867   9.130  0.5942 -1.6074  0.3742
  892SOL    HW2 4118   1.751   0.908   9.040  0.0063  0.2318  1.8864
  893SOL     OW 4119   0.561   0.079  10.268 -0.2884 -0.3546 -0.1761
  893SOL    HW1 4120   0.497   0.094  10.338  0.3168 -1.0440  0.5379
  893SOL    HW2 4121   0.521   0.013  10.213 -0.9346  0.4618 -0.7182
  894SOL     OW 4122   2.906   1.125   8.119  0.4183 -0.2050  0.4601
  894SOL    HW1 4123   2.975   1.092   8.176  1.6709 -0.1374 -0.9696
  894SOL    HW2 4124   2.923   1.219   8.111  0.0199 -0.1444  0.2822
  895SOL     OW 4125   1.373   2.695   6.205  0.3753  0.0203 -0.4738
  895SOL    HW1 4126   1.410   2.749   6.275  0.7272  0.0133 -0.6540
  895SOL    HW2 4127   1.346   2.758   6.138  2.9250 -0.1190 -1.7276
  896SOL     OW 4128   3.409   1.039   9.830  0.5850 -0.2400 -0.2678
  896SOL    HW1 4129   3.364   0.974   9.883 -1.1871  0.6085 -0.6766
  896SOL    HW2 4130   3.451   1.097   9.893 -1.9773  1.1090  0.3218
  897SOL     OW 4131   0.883   0.155   7.372  0.4424  0.1113 -0.6779
  897SOL    HW1 4132   0.839   0.105   7.303  0.1102 -2.2945  1.1157
  897SOL    HW2 4133   0.816   0.167   7.439  1.4629 -0.1856  0.4415
  898SOL     OW 4134   1.269   0.050   7.968 -0.2426  0.6104  0.4850
  898SOL    HW1 4135   1.185   0.020   8.002 -0.6800  0.8134 -0.3751
  898SOL    HW2 4136   1.315  -0.030   7.943  0.8557  0.3071  3.1697
  899SOL     OW 4137   0.715   3.180  10.253 -0.0961 -0.0074 -0.3420
  899SOL    HW1 4138   0.647   3.121  10.222 -0.8912  0.4468  0.5265
  899SOL    HW2 4139   0.676   3.267  10.248  0.1539  0.1913  0.8413
  900SOL     OW 4140   1.703   7.791   8.323  0.0542  0.5431 -0.0756
  900SOL    HW1 4141   1.632   7.845   8.289  0.0539  0.9003  0.4948
  900SOL    HW2 4142   1.706   7.809   8.417 -0.7214 -1.3048  0.3616
  901SOL     OW 4143   2.009   6.521   9.605  0.1281 -0.2058  0.0875
  901SOL    HW1 4144   1.994   6.597   9.661  1.3281 -0.0494  0.2206
  901SOL    HW2 4145   1.922   6.499   9.571 -0.7225 -0.5028  2.2447
  902SOL     OW 4146   7.554   1.409   8.837 -0.1714 -0.4088  0.0734
  902SOL    HW1 4147   7.528   1.396   8.928  1.9449 -0.7683  0.6899
  902SOL    HW2 4148   7.533   1.326   8.794 -1.1244 -0.2587  0.2256
  903SOL     OW 4149   4.748   2.415   6.093 -0.1321 -0.6524 -0.1988
  903SOL    HW1 4150   4.697   2.464   6.157  1.5243  1.4457 -0.3665
  903SOL    HW2 4151   4.711   2.441   6.009  0.8068  0.4864 -0.2928
  904SOL     OW 4152   4.479   1.640   9.300  0.6911 -0.2656  0.1061
  904SOL    HW1 4153   4.526   1.684   9.371 -0.2539 -1.5972  1.6349
  904SOL    HW2 4154   4.538   1.647   9.225  2.7039 -0.5976  1.5559
  905SOL     OW 4155   2.574   1.963   7.872  0.5038 -0.7121  0.0906
  905SOL    HW1 4156   2.660   1.936   7.904  1.0501 -0.7630 -1.3740
  905SOL    HW2 4157   2.547   2.033   7.933  2.1617  0.2047 -0.1696
  906SOL     OW 4158   1.383   2.674  10.637  0.3661 -0.4737 -0.0342
  906SOL    HW1 4159   1.330   2.743  10.676 -0.1910 -1.1519  0.4329
  906SOL    HW2 4160   1.474   2.699  10.656  0.1205 -0.5536  1.3112
  907SOL     OW 4161   1.890   0.817   8.088  0.4786  0.1581  0.3755
  907SOL    HW1 4162   1.859   0.839   8.000  0.0024 -0.4983  0.3712
  907SOL    HW2 4163   1.814   0.832   8.145  0.7912  0.6032  0.6817
  908SOL     OW 4164   7.846   7.398   7.682  0.2104  1.1037  0.5348
  908SOL    HW1 4165   7.935   7.365   7.674 -0.1320 -0.1072  1.3686
  908SOL    HW2 4166   7.834   7.457   7.608  0.5929 -1.2836 -1.5323
  909SOL     OW 4167   1.105   1.630   9.309  0.7649  0.0410  0.1219
  909SOL    HW1 4168   1.014   1.635   9.279  1.2709  0.9965 -1.3837
  909SOL    HW2 4169   1.127   1.537   9.302  0.4560  0.0483 -1.3806
  910SOL     OW 4170   3.024   1.443   9.777 -0.3015 -0.3795 -0.3445
  910SOL    HW1 4171   2.971   1.369   9.746  0.2459 -0.2391 -1.6781
  910SOL    HW2 4172   3.114   1.419   9.754  0.3336 -0.8152  2.2873
  911SOL     OW 4173   2.607   7.864   7.764 -0.2039 -0.1118  0.3353
  911SOL    HW1 4174   2.655   7.930   7.814  2.2423 -1.8859  0.4949
  911SOL    HW2 4175   2.655   7.856   7.682 -0.6438 -1.4245  0.1772
  912SOL     OW 4176   0.131   0.046   8.765 -0.0532  0.3124  0.3731
  912SOL    HW1 4177   0.064  -0.009   8.724 -0.6960  0.6134  0.9870
  912SOL    HW2 4178   0.158   0.106   8.696  2.6160 -2.4050 -1.1557
  913SOL     OW 4179   1.122   1.230   8.969 -0.0602  0.5223 -0.4492
  913SOL    HW1 4180   1.190   1.293   8.994  0.5168  0.0133 -0.6956
  913SOL    HW2 4181   1.058   1.282   8.920  1.7962  0.4908 -3.1388
  914SOL     OW 4182   1.334   1.748   8.760 -0.2062  0.0992 -0.0691
  914SOL    HW1 4183   1.396   1.701   8.815  1.4752  0.8695 -1.2247
  914SOL    HW2 4184   1.307   1.683   8.694  2.3121  0.6693 -1.8264
  915SOL     OW 4185   1.205   0.953   8.019 -0.3323  0.7887 -0.4117
  915SOL    HW1 4186   1.198   1.046   8.040  1.3629  1.0694 -0.9063
  915SOL    HW2 4187   1.296   0.942   7.992 -0.3146 -1.1626  0.3064
  916SOL     OW 4188   2.879   1.077   9.490  0.2828  0.7946 -0.2339
  916SOL    HW1 4189   2.810   1.128   9.449 -1.9913 -2.2855 -0.6434
  916SOL    HW2 4190   2.936   1.052   9.417 -0.0163  0.7231 -0.4462
  917SOL     OW 4191   2.544   2.409   6.400  0.3749  0.3273 -0.0797
  917SOL    HW1 4192   2.603   2.483   6.414  0.6399  0.0600  0.2182
  917SOL    HW2 4193   2.457   2.448   6.401  0.3746  0.3794  1.9927
  918SOL     OW 4194   1.065   1.967   9.642  0.0854 -0.3610  0.0840
  918SOL    HW1 4195   1.110   2.035   9.592 -0.1329 -1.4518 -1.6729
  918SOL    HW2 4196   1.133   1.927   9.696  0.2712  1.0068  0.9048
  919SOL     OW 4197   3.158   0.800   9.766  0.0130 -0.0831  0.2038
  919SOL    HW1 4198   3.231   0.835   9.714  0.3113 -1.4795 -0.3856
  919SOL    HW2 4199   3.079   0.828   9.719  0.2732 -1.1055 -0.9131
  920SOL     OW 4200   0.887   1.576   9.634 -0.3127  0.5165 -0.4605
  920SOL    HW1 4201   0.898   1.659   9.682  0.2857 -0.8761  1.9927
  920SOL    HW2 4202   0.933   1.511   9.688  1.3571 -1.0719 -3.5146
  921SOL     OW 4203   0.634   6.242   9.150 -0.3054  0.3416 -0.1080
  921SOL    HW1 4204   0.641   6.169   9.212  0.5868  0.9570  0.5282
  921SOL    HW2 4205   0.585   6.309   9.197  0.7582  0.9854  0.1132
  922SOL     OW 4206   0.130   5.610   6.943 -0.6804 -0.4526  0.0062
  922SOL    HW1 4207   0.216   5.651   6.941 -1.3644  1.1380  0.9733
  922SOL    HW2 4208   0.147   5.516   6.948  0.9629 -0.4801 -3.5320
  923SOL     OW 4209   0.679   0.568   7.178 -0.3026  0.3690 -0.6797
  923SOL    HW1 4210   0.690   0.478   7.147  0.2386  0.2167 -0.0659
  923SOL    HW2 4211   0.644   0.560   7.266 -0.3100  0.7573 -0.6431
  924SOL     OW 4212   0.733   0.269   8.292 -0.2437  0.6199 -0.3130
  924SOL    HW1 4213   0.828   0.261   8.294 -0.3882 -1.3286  0.6571
  924SOL    HW2 4214   0.702   0.183   8.265 -1.7361  1.3974 -1.2087
  925SOL     OW 4215   0.442   1.411   6.689  0.4472 -0.3541  0.3114
  925SOL    HW1 4216   0.443   1.328   6.643 -1.1570  0.0662 -0.5541
  925SOL    HW2 4217   0.350   1.439   6.685  1.0791  1.7978 -0.0567
  926SOL     OW 4218   2.081   1.385   7.365 -0.0302 -0.3086 -0.8586
  926SOL    HW1 4219   2.173   1.362   7.379 -0.0331  1.2095  2.8707
  926SOL    HW2 4220   2.058   1.343   7.283  4.1362 -0.2566 -2.2849
  927SOL     OW 4221   2.689   0.807   8.378  0.3893 -0.0597 -0.0193
  927SOL    HW1 4222   2.781   0.831   8.371 -0.3919  3.4506  0.2706
  927SOL    HW2 4223   2.680   0.771   8.466  1.1121  1.5112  0.7235
  928SOL     OW 4224   1.229   5.643   9.154 -0.1809 -0.1940 -0.3769
  928SOL    HW1 4225   1.293   5.687   9.098  1.2028 -0.8069  0.6559
  928SOL    HW2 4226   1.257   5.552   9.156 -0.4957 -0.2887  0.8905
  929SOL     OW 4227   1.596   1.789   6.616  0.4169  0.2761 -0.1828
  929SOL    HW1 4228   1.666   1.725   6.603  0.1560 -0.0936  0.1734
  929SOL    HW2 4229   1.518   1.736   6.635  0.4271  0.7177  1.1918
  930SOL     OW 4230   0.748   0.690   8.230  0.1298  0.0670  0.4037
  930SOL    HW1 4231   0.683   0.678   8.300 -1.1996 -2.9543 -1.1608
  930SOL    HW2 4232   0.708   0.755   8.172 -0.5665 -0.2348  0.5264
  931SOL     OW 4233   3.326   1.949   8.995 -0.3157  0.4158  0.0550
  931SOL    HW1 4234   3.355   1.927   8.907 -0.4486 -0.6544  0.2576
  931SOL    HW2 4235   3.274   1.873   9.023  1.2687 -0.1377  1.7386
  932SOL     OW 4236   1.179   2.405   9.156  0.7488  0.7083  0.3884
  932SOL    HW1 4237   1.239   2.342   9.196  1.3232  1.7014  1.1339
  932SOL    HW2 4238   1.139   2.356   9.084 -0.5119 -1.2217  2.2679
  933SOL     OW 4239   1.313   1.317   6.429 -1.0230  0.0626  0.6179
  933SOL    HW1 4240   1.319   1.250   6.497 -1.4271 -0.4245  0.1853
  933SOL    HW2 4241   1.266   1.389   6.471  1.7434  1.2312  1.9384
  934SOL     OW 4242   0.073   0.547   8.561 -0.1515  0.1952  0.6727
  934SOL    HW1 4243   0.013   0.482   8.522  1.4188 -1.5887  1.0513
  934SOL    HW2 4244   0.062   0.625   8.507 -0.4008 -1.1665 -1.3884
  935SOL     OW 4245   1.429   1.161   8.440 -0.4180 -0.3534  0.1315
  935SOL    HW1 4246   1.464   1.240   8.481 -0.3028 -0.3620  0.0525
  935SOL    HW2 4247   1.335   1.176   8.433 -0.2718  0.2001 -0.8050
  936SOL     OW 4248   0.365   1.481   8.099 -0.3238 -0.0810  0.0109
  936SOL    HW1 4249   0.401   1.536   8.169  1.7901 -0.3727 -0.7938
  936SOL    HW2 4250   0.381   1.392   8.127 -1.0046 -0.2501 -0.1024
  937SOL     OW 4251   7.315   0.343   8.406  0.1351  0.4840  0.2294
  937SOL    HW1 4252   7.238   0.362   8.352 -0.2820  1.1761  1.0451
  937SOL    HW2 4253   7.383   0.319   8.343 -1.2056 -1.9233 -0.4580
  938SOL     OW 4254   1.652   7.711   6.872 -0.0052 -0.6288 -0.4274
  938SOL    HW1 4255   1.631   7.641   6.934 -0.7382 -0.0187  0.0476
  938SOL    HW2 4256   1.584   7.777   6.888 -0.4265 -0.6146 -2.1550
  939SOL     OW 4257   7.738   1.768   7.401  0.8712 -0.2951 -0.1351
  939SOL    HW1 4258   7.678   1.835   7.367 -0.6922 -1.1493  0.7939
  939SOL    HW2 4259   7.794   1.747   7.327 -0.5987 -0.1112 -1.3679
  940SOL     OW 4260   1.057   7.360   6.283  0.9577 -0.2787 -0.0807
  940SOL    HW1 4261   1.008   7.309   6.219  2.8257 -0.9629 -1.0524
  940SOL    HW2 4262   1.032   7.451   6.266 -0.6236 -0.6520  0.0908
  941SOL     OW 4263   2.367   2.455   9.951  0.8565  0.4210  0.6952
  941SOL    HW1 4264   2.347   2.508  10.029  2.8951  0.3983  1.2954
  941SOL    HW2 4265   2.453   2.486   9.923  0.4522 -0.0593 -1.1639
  942SOL     OW 4266   0.143   1.642   7.802 -0.0757  0.1080 -0.0652
  942SOL    HW1 4267   0.235   1.617   7.790  0.0290  0.3813  0.1737
  942SOL    HW2 4268   0.101   1.615   7.720 -0.1431 -1.6624  0.5083
  943SOL     OW 4269   0.359   1.846   8.532  0.9316 -0.7210  0.6511
  943SOL    HW1 4270   0.408   1.783   8.479 -0.5043 -0.1625 -1.4887
  943SOL    HW2 4271   0.422   1.878   8.596  2.8494 -1.3034 -0.8514
  944SOL     OW 4272   3.288   0.260   8.880 -0.0595  0.0851  0.4693
  944SOL    HW1 4273   3.354   0.194   8.857  2.0308  2.1509  0.1896
  944SOL    HW2 4274   3.229   0.261   8.804  1.1837  0.0805 -0.5345
  945SOL     OW 4275   0.559   6.892  10.456  0.4460  0.0378  0.0645
  945SOL    HW1 4276   0.478   6.900  10.507  1.1958  0.0015  1.3118
  945SOL    HW2 4277   0.627   6.925  10.515  1.7398 -2.4562  0.1041
  946SOL     OW 4278   1.031   0.166   9.291  0.2627 -0.5585  0.4883
  946SOL    HW1 4279   0.984   0.112   9.227  0.2190  1.9504 -1.8028
  946SOL    HW2 4280   0.963   0.203   9.347 -0.0941 -0.2336 -0.1414
  947SOL     OW 4281   2.881   0.574   9.010 -0.1353 -0.2020 -0.1376
  947SOL    HW1 4282   2.803   0.530   8.976  0.2622 -1.9756  1.1201
  947SOL    HW2 4283   2.874   0.566   9.105  1.3718 -0.0261  0.0173
  948SOL     OW 4284   0.927   1.930   7.240  0.2965  0.7443 -1.0446
  948SOL    HW1 4285   1.009   1.927   7.288 -0.1599 -0.7292 -0.3005
  948SOL    HW2 4286   0.871   1.865   7.283 -0.3112 -0.2717 -3.2547
  949SOL     OW 4287   1.522   0.657   7.544 -0.0239  0.5099  0.4001
  949SOL    HW1 4288   1.559   0.683   7.459 -2.4240  0.8716 -0.6051
  949SOL    HW2 4289   1.480   0.736   7.577 -0.9218 -0.1659  0.9101
  950SOL     OW 4290   0.384   0.784   8.922 -0.2616 -0.5784 -0.1024
  950SOL    HW1 4291   0.365   0.878   8.928 -1.0644 -0.7961  1.1613
  950SOL    HW2 4292   0.300   0.742   8.938  0.0746 -1.5207 -0.7829
  951SOL     OW 4293   0.105   1.054   7.608  1.1056  0.0651  0.0042
  951SOL    HW1 4294   0.032   0.993   7.613  1.7150 -0.6460  0.7859
  951SOL    HW2 4295   0.134   1.051   7.517  0.4783 -0.0059 -0.1988
  952SOL     OW 4296   2.376   1.455   8.489  0.6670  0.1614 -0.1864
  952SOL    HW1 4297   2.444   1.519   8.468  1.0263 -0.4445 -0.8787
  952SOL    HW2 4298   2.360   1.468   8.583  1.5509  0.4728 -0.0668
  953SOL     OW 4299   0.218   7.971   9.032  0.1935  0.1285  0.1191
  953SOL    HW1 4300   0.185   8.007   8.949  1.4025  0.0790 -0.4029
  953SOL    HW2 4301   0.158   7.899   9.052 -0.8177  0.8854 -0.0793
  954SOL     OW 4302   6.604   7.722   7.494 -0.4916 -0.1492 -0.2730
  954SOL    HW1 4303   6.663   7.793   7.518  0.2600  0.0691 -2.4711
  954SOL    HW2 4304   6.519   7.749   7.528 -0.0390  1.3880 -0.2623
  955SOL     OW 4305   3.501   0.652   9.348  0.1802  0.0848  0.0273
  955SOL    HW1 4306   3.595   0.633   9.357  0.7549  2.4861 -0.1078
  955SOL    HW2 4307   3.493   0.691   9.261 -1.6978 -3.6421 -1.6801
  956SOL     OW 4308   1.848   7.741   6.130 -0.9876 -0.3296 -0.4468
  956SOL    HW1 4309   1.816   7.812   6.187 -1.8668 -1.0017 -0.0653
  956SOL    HW2 4310   1.868   7.670   6.191  0.5965 -0.1728 -0.7593
  957SOL     OW 4311   1.992   1.508   8.027 -1.0027  0.0618  0.3384
  957SOL    HW1 4312   2.001   1.444   7.956 -1.2357  0.0779  0.2918
  957SOL    HW2 4313   1.956   1.586   7.984 -1.6103 -0.0910  0.5510
  958SOL     OW 4314   2.644   3.078   7.770  0.4090 -0.3128 -0.1613
  958SOL    HW1 4315   2.710   3.147   7.768  0.9169 -0.8053 -1.1055
  958SOL    HW2 4316   2.647   3.040   7.682 -1.8887  0.3588 -0.5990
  959SOL     OW 4317   1.231   1.008   6.312 -0.0172 -0.1706 -0.6556
  959SOL    HW1 4318   1.189   0.986   6.395  0.6144  1.9643  0.3152
  959SOL    HW2 4319   1.323   1.023   6.335  0.0549  1.0297 -1.5976
  960SOL     OW 4320   1.017   7.203   8.471  0.2521 -0.1817 -0.3839
  960SOL    HW1 4321   1.094   7.169   8.516 -0.6917 -1.7489  0.0978
  960SOL    HW2 4322   1.008   7.293   8.504 -0.8689 -1.4639  3.2936
  961SOL     OW 4323   2.547   0.805   9.071  0.2199  0.4302 -0.3121
  961SOL    HW1 4324   2.495   0.883   9.050 -0.9371 -0.5363 -1.1392
  961SOL    HW2 4325   2.551   0.804   9.166  1.7287  2.4313 -0.2839
  962SOL     OW 4326   2.560   0.465   8.190 -0.2126 -0.3127  0.2524
  962SOL    HW1 4327   2.500   0.391   8.195 -0.6620  0.1113  1.4985
  962SOL    HW2 4328   2.549   0.511   8.273  1.7516 -0.1308  0.4638
  963SOL     OW 4329   0.361   0.187   7.686  0.3476  0.0571  0.0689
  963SOL    HW1 4330   0.345   0.104   7.731 -0.4226 -0.7074 -1.5407
  963SOL    HW2 4331   0.365   0.164   7.593 -1.9552  2.0826 -0.6203
  964SOL     OW 4332   0.858   0.001   7.951  0.0488 -0.0034 -0.0026
  964SOL    HW1 4333   0.925   0.020   8.017  0.3202  0.3644 -0.3781
  964SOL    HW2 4334   0.882  -0.086   7.918  0.7745  0.4149 -0.6325
  965SOL     OW 4335   2.907   0.668  10.285  0.1229  0.0601 -0.7389
  965SOL    HW1 4336   2.948   0.724  10.352 -2.4923  1.6375 -0.3377
  965SOL    HW2 4337   2.929   0.710  10.202  2.0932 -1.0467 -0.8364
  966SOL     OW 4338   1.534   0.520   6.851  0.3891 -0.3533 -0.2593
  966SOL    HW1 4339   1.597   0.453   6.878 -0.4840 -1.2193 -0.3068
  966SOL    HW2 4340   1.520   0.573   6.929  1.6141  0.2243 -0.4095
  967SOL     OW 4341   1.907   1.746   7.868 -0.2061  0.2960 -0.2959
  967SOL    HW1 4342   1.995   1.762   7.902 -0.7439 -0.9411  1.8843
  967SOL    HW2 4343   1.855   1.820   7.900 -0.5779 -0.5436  1.1035
  968SOL     OW 4344   2.298   7.951   6.636  0.3698 -0.8134 -0.1945
  968SOL    HW1 4345   2.252   7.886   6.583 -1.8618 -0.2538  0.8964
  968SOL    HW2 4346   2.279   7.925   6.727  0.1760  0.8262  0.2673
  969SOL     OW 4347   1.147   0.951   6.586  0.3387 -0.4286  0.3392
  969SOL    HW1 4348   1.123   1.030   6.635  0.5336 -0.4945  0.5410
  969SOL    HW2 4349   1.216   0.910   6.638  0.1141 -0.8284  0.3279
  970SOL     OW 4350   0.467   7.875   8.137  0.3727  0.2493  0.0154
  970SOL    HW1 4351   0.474   7.791   8.091  1.1899 -0.0202  0.6031
  970SOL    HW2 4352   0.376   7.902   8.124  0.1849 -0.5655 -0.4578
  971SOL     OW 4353   2.013   2.594   7.037 -0.8149  0.5014  0.3062
  971SOL    HW1 4354   1.955   2.527   7.076  1.7601 -2.0208  0.1438
  971SOL    HW2 4355   2.080   2.609   7.104  0.5329  0.3420 -0.9754
  972SOL     OW 4356   2.453   0.218  10.446  0.7285 -0.1858  0.1032
  972SOL    HW1 4357   2.389   0.239  10.378  1.6023  0.8068 -0.4443
  972SOL    HW2 4358   2.513   0.292  10.445  1.1617 -0.4999  1.4827
  973SOL     OW 4359   2.488   2.864   9.265  0.3692 -0.2444  0.4139
  973SOL    HW1 4360   2.405   2.828   9.297  1.8287 -3.5692  0.8294
  973SOL    HW2 4361   2.472   2.884   9.173 -0.9740 -0.4047  0.5912
  974SOL     OW 4362   3.172   0.697   8.591  0.4513 -0.2405 -0.3918
  974SOL    HW1 4363   3.130   0.779   8.566 -0.5275 -0.0325  1.7058
  974SOL    HW2 4364   3.132   0.674   8.675  2.0358 -1.9074 -0.0203
  975SOL     OW 4365   1.792   0.064   8.699  0.3209 -0.1780 -0.1210
  975SOL    HW1 4366   1.739   0.132   8.740  1.0397  0.3825 -0.0983
  975SOL    HW2 4367   1.791  -0.008   8.762 -0.5218 -0.2399 -0.1856
  976SOL     OW 4368   3.603   1.268   9.016 -0.3246  0.4719 -0.4438
  976SOL    HW1 4369   3.626   1.176   9.000  1.0817  0.8045 -0.4819
  976SOL    HW2 4370   3.574   1.300   8.930 -0.2668  0.2121 -0.5631
  977SOL     OW 4371   1.609   0.365   9.007 -0.5812 -0.0277 -0.2657
  977SOL    HW1 4372   1.542   0.404   9.062  0.7394 -0.7240  1.9891
  977SOL    HW2 4373   1.650   0.439   8.962 -2.9577  0.3715 -1.9236
  978SOL     OW 4374   7.184   6.992   7.932 -0.1247 -0.0300  0.2043
  978SOL    HW1 4375   7.184   6.898   7.948  0.1856 -0.2935 -1.2281
  978SOL    HW2 4376   7.096   7.021   7.958 -0.2383 -0.7139  0.6007
  979SOL     OW 4377   2.490   6.291  10.069 -0.2898  0.4195 -0.1620
  979SOL    HW1 4378   2.537   6.289   9.985 -0.8947 -0.1251 -0.4976
  979SOL    HW2 4379   2.501   6.203  10.105  0.0652  0.6860  0.3920
  980SOL     OW 4380   0.762   1.734   7.363  0.0173 -0.1191 -0.0707
  980SOL    HW1 4381   0.797   1.713   7.449  1.5557  1.4170 -0.2692
  980SOL    HW2 4382   0.732   1.650   7.328  1.0908 -1.0786  1.2061
  981SOL     OW 4383   1.545   0.301   7.300  0.8680  0.4934  0.5652
  981SOL    HW1 4384   1.486   0.231   7.331  1.2812  0.6723  1.8121
  981SOL    HW2 4385   1.584   0.266   7.220 -1.3653  0.6017 -0.6501
  982SOL     OW 4386   1.880   0.359   9.233 -0.1184  0.2228 -0.2657
  982SOL    HW1 4387   1.850   0.399   9.314  1.2424  0.7091  0.0246
  982SOL    HW2 4388   1.952   0.415   9.204  0.2643 -0.6842 -1.1212
  983SOL     OW 4389   2.508   1.697   8.754 -0.3661  0.6975  0.8179
  983SOL    HW1 4390   2.568   1.736   8.818  3.5461 -2.2868 -0.6830
  983SOL    HW2 4391   2.527   1.743   8.673 -1.2130  0.6850  0.6050
  984SOL     OW 4392   3.159   1.196   8.740  0.0264 -0.0726 -0.4669
  984SOL    HW1 4393   3.072   1.220   8.773  0.7192  1.9974 -0.0318
  984SOL    HW2 4394   3.205   1.279   8.732  1.5977 -1.0325 -1.8175
  985SOL     OW 4395   2.485   0.538  10.680 -0.0874  1.0520 -0.2228
  985SOL    HW1 4396   2.482   0.551  10.585  0.0396  0.6326 -0.2868
  985SOL    HW2 4397   2.433   0.459  10.695 -0.0263  1.0613  0.0437
  986SOL     OW 4398   0.323   0.205   8.273  0.0656  0.2986  0.4168
  986SOL    HW1 4399   0.343   0.126   8.224 -0.2320  0.6107 -0.2213
  986SOL    HW2 4400   0.304   0.271   8.206 -0.6048  0.6655  0.9521
  987SOL     OW 4401   1.832   7.222   8.855 -0.2533  0.3065 -0.1113
  987SOL    HW1 4402   1.798   7.251   8.770 -0.1471 -3.7847 -1.8020
  987SOL    HW2 4403   1.754   7.199   8.905 -0.2777  1.6611  0.4910
  988SOL     OW 4404   2.315   1.217  10.247 -0.0556  0.1043  0.3149
  988SOL    HW1 4405   2.350   1.305  10.258  1.2178 -0.3682  0.2003
  988SOL    HW2 4406   2.238   1.229  10.191 -0.0293  1.1664  0.4828
  989SOL     OW 4407   7.459   1.507   9.508 -0.1914  0.3837  0.3366
  989SOL    HW1 4408   7.515   1.476   9.437  0.6333  1.8620  0.2843
  989SOL    HW2 4409   7.372   1.476   9.485 -0.0290  1.1790 -1.5741
  990SOL     OW 4410   7.402   6.781   9.525  0.5233 -0.3070 -0.4381
  990SOL    HW1 4411   7.307   6.768   9.522  0.4311  0.4489 -1.0637
  990SOL    HW2 4412   7.438   6.697   9.498  0.0939 -1.2884  1.8502
  991SOL     OW 4413   2.968   0.373   9.322  0.4545 -0.6365 -0.2364
  991SOL    HW1 4414   3.029   0.446   9.332  1.1654 -1.3690  1.0267
  991SOL    HW2 4415   2.883   0.415   9.308  0.9057  0.4313  0.0984
  992SOL     OW 4416   3.993   1.149   8.657  0.5128 -0.1247 -0.2466
  992SOL    HW1 4417   3.931   1.136   8.586  0.4948 -0.4821 -0.1707
  992SOL    HW2 4418   3.976   1.237   8.689 -0.1633 -0.3348 -0.0229
  993SOL     OW 4419   0.606   0.654   7.901 -0.1714  0.4593 -0.6377
  993SOL    HW1 4420   0.679   0.594   7.919 -1.4876  0.0245  4.8928
  993SOL    HW2 4421   0.634   0.737   7.939 -1.4293  1.1052 -1.1046
  994SOL     OW 4422   0.144   0.643   8.982  0.2077  0.5681  0.3023
  994SOL    HW1 4423   0.146   0.555   8.945  0.1383  0.2280  1.0888
  994SOL    HW2 4424   0.058   0.651   9.022  0.4932  0.7030  0.9102
  995SOL     OW 4425   1.373   0.861   9.369  0.1257  0.2770  0.7337
  995SOL    HW1 4426   1.352   0.942   9.323  3.1714  2.0033  2.0609
  995SOL    HW2 4427   1.454   0.831   9.328 -0.4561 -1.6171  0.9011
  996SOL     OW 4428   2.184   0.154   8.732 -0.0580  0.1839 -0.1497
  996SOL    HW1 4429   2.113   0.218   8.728  0.5918  0.8955 -0.4676
  996SOL    HW2 4430   2.234   0.179   8.810  1.1320  1.0853 -1.1621
  997SOL     OW 4431   2.020   0.916   9.183 -0.2724 -0.4175  0.5117
  997SOL    HW1 4432   2.081   0.923   9.110 -0.9005  1.0878  0.1073
  997SOL    HW2 4433   2.073   0.939   9.260 -0.2176  0.4306  0.2211
  998SOL     OW 4434   7.817   1.611   8.559  0.2083  0.1676  0.4324
  998SOL    HW1 4435   7.856   1.547   8.499 -0.3371 -0.0003  0.2580
  998SOL    HW2 4436   7.892   1.662   8.590  0.5450 -0.0103 -0.0723
  999SOL     OW 4437   0.336   7.183   7.315  0.0824 -0.5360 -1.0041
  999SOL    HW1 4438   0.293   7.241   7.378  0.1350 -1.9463  0.3925
  999SOL    HW2 4439   0.393   7.241   7.264  1.3730  0.4628  1.4114
 1000SOL     OW 4440   0.968   0.277   6.918  0.0381 -0.3678  0.3487
 1000SOL    HW1 4441   0.968   0.203   6.979  0.6012 -0.9675 -0.3610
 1000SOL    HW2 4442   1.058   0.282   6.887  0.4376  1.6789  1.6144
 1001SOL     OW 4443   1.919   0.754   9.767 -0.0427 -0.2663 -0.1128
 1001SOL    HW1 4444   1.890   0.815   9.835  0.1325  0.0429 -0.3150
 1001SOL    HW2 4445   1.991   0.798   9.724 -0.3629 -0.3245 -0.7144
 1002SOL     OW 4446   2.735   2.070  10.071  0.0266 -0.3914 -0.5905
 1002SOL    HW1 4447   2.666   2.137  10.071  0.0079 -0.4022  0.5034
 1002SOL    HW2 4448   2.816   2.119  10.059  0.1757  0.0470  1.7415
 1003SOL     OW 4449   0.567   7.650  10.828  0.2764 -0.1378  0.9390
 1003SOL    HW1 4450   0.548   7.557  10.816  0.0378 -0.0636  0.7443
 1003SOL    HW2 4451   0.504   7.695  10.773  1.8566  0.0638 -0.7903
 1004SOL     OW 4452   0.165   0.197   9.204  0.1633  0.9643  0.1260
 1004SOL    HW1 4453   0.081   0.183   9.248  0.6354 -0.3231  0.6676
 1004SOL    HW2 4454   0.171   0.126   9.141  2.0041 -0.6328  1.9471
 1005SOL     OW 4455   2.507   7.384   6.665 -0.1199  0.4494 -0.1868
 1005SOL    HW1 4456   2.510   7.288   6.655  0.6289  0.5194 -0.7282
 1005SOL    HW2 4457   2.593   7.407   6.699 -0.4045  0.9081  0.2301
 1006SOL     OW 4458   1.615   0.454   7.808 -0.4041 -0.4491 -0.0686
 1006SOL    HW1 4459   1.658   0.394   7.870  0.9188 -1.4610 -1.8827
 1006SOL    HW2 4460   1.530   0.413   7.792 -0.0128 -1.1782 -0.3276
 1007SOL     OW 4461   0.914   0.974   8.192  0.3415  0.4276  0.1771
 1007SOL    HW1 4462   0.986   0.974   8.128 -0.9651 -1.9280 -1.4574
 1007SOL    HW2 4463   0.928   0.895   8.244 -0.7890  0.1998  0.1561
 1008SOL     OW 4464   0.964   3.566   7.567 -0.4993  0.0882  0.3029
 1008SOL    HW1 4465   0.917   3.635   7.521 -0.9877  0.1336  0.8523
 1008SOL    HW2 4466   1.046   3.556   7.519 -1.1825 -0.1886 -0.8375
 1009SOL     OW 4467   1.786   0.321   7.990 -0.0884 -0.0942 -0.4957
 1009SOL    HW1 4468   1.875   0.289   8.007 -0.3067 -0.7033 -0.4649
 1009SOL    HW2 4469   1.731   0.265   8.045 -0.5680 -0.2769 -1.1658
 1010SOL     OW 4470   3.297   0.449  10.579 -0.0343 -0.3299 -0.1335
 1010SOL    HW1 4471   3.271   0.390  10.649 -1.8892  0.3746 -0.1581
 1010SOL    HW2 4472   3.227   0.515  10.576  1.7068  1.5997 -0.4158
 1011SOL     OW 4473   7.592   1.485   6.645  0.3026 -0.1987 -0.0476
 1011SOL    HW1 4474   7.583   1.544   6.719  3.1684  0.0712  0.1897
 1011SOL    HW2 4475   7.606   1.544   6.570  3.0580 -0.4259  0.1743
 1012SOL     OW 4476   1.356   2.262   8.674  0.3934 -0.1063 -0.4017
 1012SOL    HW1 4477   1.398   2.213   8.745  0.3427 -0.2206 -0.4520
 1012SOL    HW2 4478   1.265   2.233   8.674  0.2190  0.4138 -0.0502
 1013SOL     OW 4479   1.808   0.543   6.321 -0.3420 -0.3690 -0.3809
 1013SOL    HW1 4480   1.871   0.586   6.379 -0.0010 -0.6300 -0.5525
 1013SOL    HW2 4481   1.722   0.565   6.357 -0.1806  0.5248 -0.5063
 1014SOL     OW 4482   2.672   1.210   9.369 -0.8377 -0.0902  0.0382
 1014SOL    HW1 4483   2.599   1.172   9.418  0.2587 -0.5358  1.3919
 1014SOL    HW2 4484   2.631   1.259   9.298 -2.4043 -1.4598 -0.0600
 1015SOL     OW 4485   0.311   1.461   9.132  0.2955 -0.1779 -0.2969
 1015SOL    HW1 4486   0.274   1.489   9.049  0.9898  0.5483 -0.3752
 1015SOL    HW2 4487   0.283   1.528   9.195  0.2917 -0.3890 -0.0709
 1016SOL     OW 4488   7.189   2.072  10.268 -0.4505  0.6126  0.1789
 1016SOL    HW1 4489   7.176   2.130  10.344  0.3115  1.0452 -0.0141
 1016SOL    HW2 4490   7.117   2.094  10.209  0.5046  2.2616 -0.4366
 1017SOL     OW 4491   2.010   0.351   8.703 -0.4496 -0.1932 -0.7426
 1017SOL    HW1 4492   1.922   0.385   8.683 -1.8541 -2.3449  1.2041
 1017SOL    HW2 4493   2.056   0.426   8.741 -1.9535  0.6212 -0.4418
 1018SOL     OW 4494   6.829   1.271   8.330  0.1355 -0.4007  0.4239
 1018SOL    HW1 4495   6.752   1.232   8.370 -1.3859  1.8483 -0.1676
 1018SOL    HW2 4496   6.890   1.284   8.403 -0.5989 -0.8927  1.1404
 1019SOL     OW 4497   1.305   7.597   6.962  0.0799  0.1794  0.1984
 1019SOL    HW1 4498   1.311   7.595   6.867  0.3493  0.7554  0.1966
 1019SOL    HW2 4499   1.243   7.667   6.981 -2.4745 -1.9738  0.3859
 1020SOL     OW 4500   1.789   1.850   9.529 -0.3471 -0.5322 -0.2477
 1020SOL    HW1 4501   1.740   1.901   9.464 -0.3783  0.6090  0.6535
 1020SOL    HW2 4502   1.784   1.760   9.496 -0.7790 -0.0559 -1.5674
 1021SOL     OW 4503   2.099   6.878   9.173  0.1080  0.5990 -0.1849
 1021SOL    HW1 4504   2.046   6.799   9.170  2.9730 -1.5082  0.2847
 1021SOL    HW2 4505   2.073   6.928   9.096 -2.0620 -0.5598 -0.2754
 1022SOL     OW 4506   2.615   1.378   9.663 -0.2564  0.4990  0.4410
 1022SOL    HW1 4507   2.552   1.386   9.734 -1.6069 -1.2089 -0.4846
 1022SOL    HW2 4508   2.565   1.397   9.583  0.2315 -1.3486 -0.3580
 1023SOL     OW 4509   0.504   0.492   6.704  0.1597  0.6182  0.0752
 1023SOL    HW1 4510   0.554   0.423   6.749 -0.5440  0.9916  1.5022
 1023SOL    HW2 4511   0.568   0.536   6.649  0.8035 -0.6408 -0.2284
 1024SOL     OW 4512   6.802   2.332   8.992  0.0011  0.2982  0.0410
 1024SOL    HW1 4513   6.818   2.266   9.060 -1.1936 -1.5807 -1.4206
 1024SOL    HW2 4514   6.865   2.311   8.923 -0.7937  0.2929 -0.6935
 1025SOL     OW 4515   0.737   0.134   6.384  0.2275 -0.2527  0.0597
 1025SOL    HW1 4516   0.775   0.054   6.421  0.9410  0.2726  0.4916
 1025SOL    HW2 4517   0.763   0.132   6.292 -0.2220 -0.7811 -0.0644
 1026SOL     OW 4518   1.831   1.626   6.682  0.6668 -0.3593  0.3305
 1026SOL    HW1 4519   1.876   1.708   6.663  1.0018 -0.6290 -0.0537
 1026SOL    HW2 4520   1.861   1.601   6.770  0.6059 -0.0998  0.4243
 1027SOL     OW 4521   1.947   1.271   9.180  0.1563  0.1917 -0.5238
 1027SOL    HW1 4522   1.917   1.235   9.263 -1.0915  0.8790 -0.6581
 1027SOL    HW2 4523   2.017   1.332   9.204 -0.1793  0.3639  0.0305
 1028SOL     OW 4524   2.270   1.794   7.224  0.3502  0.0336 -0.2371
 1028SOL    HW1 4525   2.266   1.744   7.142  1.8084 -0.6135  0.0582
 1028SOL    HW2 4526   2.315   1.736   7.285 -2.3002 -0.2611  1.6268
 1029SOL     OW 4527   1.159   0.748   8.721 -0.2423 -0.8758 -0.0082
 1029SOL    HW1 4528   1.152   0.827   8.775  2.9952  0.2983 -1.0623
 1029SOL    HW2 4529   1.182   0.679   8.782  2.5919  0.2749  0.4041
 1030SOL     OW 4530   1.546   2.526   6.797  0.4492  0.3039 -0.0804
 1030SOL    HW1 4531   1.611   2.458   6.776  0.4672 -0.0297  0.9583
 1030SOL    HW2 4532   1.470   2.477   6.828  0.7342  0.7486  1.4255
 1031SOL     OW 4533   0.872   7.835   8.352  0.7770 -0.0215 -0.2246
 1031SOL    HW1 4534   0.811   7.766   8.327 -0.3176  0.5706  0.7481
 1031SOL    HW2 4535   0.937   7.836   8.281 -0.3605 -0.6257 -1.3141
 1032SOL     OW 4536   1.100   0.165   6.592 -0.0854  0.1456  0.0965
 1032SOL    HW1 4537   1.172   0.107   6.617  1.0943  1.9118  1.0427
 1032SOL    HW2 4538   1.021   0.115   6.613  0.8834 -0.7566  1.8685
 1033SOL     OW 4539   5.534   1.870   9.020 -0.5955 -0.2126  0.2753
 1033SOL    HW1 4540   5.480   1.935   8.975 -0.5502 -1.0171 -0.9869
 1033SOL    HW2 4541   5.557   1.806   8.952  2.1632  0.2323  0.6890
 1034SOL     OW 4542   2.436   1.663   6.661 -0.2187  0.6370  0.0070
 1034SOL    HW1 4543   2.386   1.741   6.636 -1.3060 -0.6378 -2.0060
 1034SOL    HW2 4544   2.394   1.634   6.743  0.3947  2.2733  0.9529
 1035SOL     OW 4545   0.358   1.162   8.747  0.2813  0.0071 -0.1815
 1035SOL    HW1 4546   0.336   1.116   8.666 -0.3522 -1.5324  0.8047
 1035SOL    HW2 4547   0.338   1.254   8.729 -1.3813 -0.5173 -1.2634
 1036SOL     OW 4548   2.352   0.380   8.942 -0.3112  0.4868  0.1988
 1036SOL    HW1 4549   2.376   0.452   8.884 -0.9948 -0.8333 -1.8437
 1036SOL    HW2 4550   2.407   0.307   8.913 -2.0865 -0.7629 -0.1612
 1037SOL     OW 4551   2.233   2.864  10.009  0.2584 -0.2415  0.1942
 1037SOL    HW1 4552   2.298   2.931   9.986 -1.0823  0.6116 -1.2837
 1037SOL    HW2 4553   2.248   2.793   9.947  0.1751 -0.3021  0.2434
 1038SOL     OW 4554   0.870   6.538   9.309  0.2647 -0.0377  0.0898
 1038SOL    HW1 4555   0.783   6.575   9.294  0.6117  0.4569 -0.7306
 1038SOL    HW2 4556   0.855   6.443   9.308 -0.3558  0.0480  0.5522
 1039SOL     OW 4557   6.847   0.565   7.781  0.8101  0.6696  0.0632
 1039SOL    HW1 4558   6.881   0.631   7.721  2.0521 -0.6517 -0.7221
 1039SOL    HW2 4559   6.917   0.500   7.789 -0.3943 -0.6007  0.7721
 1040SOL     OW 4560   1.097   2.509   5.947  0.0249 -0.0969 -0.3048
 1040SOL    HW1 4561   1.023   2.561   5.918 -0.7695 -0.1963  1.4173
 1040SOL    HW2 4562   1.088   2.505   6.042  1.1997 -1.6750 -0.2154
 1041SOL     OW 4563   1.755   0.174  10.114 -0.4464 -0.1830  0.3590
 1041SOL    HW1 4564   1.662   0.164  10.091 -0.8883  1.2875  1.3163
 1041SOL    HW2 4565   1.802   0.141  10.038 -1.8053  1.8898 -1.5194
 1042SOL     OW 4566   7.608   1.295   6.455  0.4080  0.1829 -0.2563
 1042SOL    HW1 4567   7.551   1.223   6.483 -0.7041  1.2620  0.3254
 1042SOL    HW2 4568   7.608   1.356   6.528 -0.9965  2.1463 -1.7635
 1043SOL     OW 4569   2.205   2.256   6.066  0.1418 -0.2331 -0.3217
 1043SOL    HW1 4570   2.197   2.348   6.093  0.5576  0.0556 -1.1348
 1043SOL    HW2 4571   2.153   2.251   5.985 -0.2220 -0.8208 -0.0591
 1044SOL     OW 4572   1.440   0.264  10.596 -0.2778  0.6006  0.1758
 1044SOL    HW1 4573   1.513   0.296  10.542  0.9667  0.3761  1.6423
 1044SOL    HW2 4574   1.395   0.201  10.540  1.3645 -0.1310 -0.4034
 1045SOL     OW 4575   1.869   2.759   7.778  0.6198 -0.2582 -0.4784
 1045SOL    HW1 4576   1.880   2.703   7.855 -3.2657  0.4565  0.8328
 1045SOL    HW2 4577   1.896   2.846   7.807  0.2346 -0.2021 -0.2862
 1046SOL     OW 4578   0.266   7.569   7.239 -0.0878 -0.5844 -0.5363
 1046SOL    HW1 4579   0.204   7.642   7.248 -1.4685 -1.5732 -1.6177
 1046SOL    HW2 4580   0.295   7.573   7.148 -0.7182 -1.7826 -0.8084
 1047SOL     OW 4581   0.650   7.190   7.163 -0.1575 -0.0392  0.0167
 1047SOL    HW1 4582   0.608   7.116   7.208 -0.0025 -1.2693 -1.7377
 1047SOL    HW2 4583   0.619   7.267   7.210 -0.5285 -1.1935  1.7659
 1048SOL     OW 4584   0.346   2.150   8.172  0.2112 -0.0945  0.1836
 1048SOL    HW1 4585   0.319   2.058   8.181 -0.3424 -0.1115 -1.3048
 1048SOL    HW2 4586   0.282   2.187   8.111  1.8059  0.6666 -1.0925
 1049SOL     OW 4587   2.769   1.620  11.172 -0.4690  0.4552  0.2723
 1049SOL    HW1 4588   2.710   1.579  11.235 -0.8178  0.0071 -0.3385
 1049SOL    HW2 4589   2.718   1.627  11.091 -1.3018  4.3434  0.9400
 1050SOL     OW 4590   0.321   0.825   9.240  0.3351  0.5303  0.4695
 1050SOL    HW1 4591   0.278   0.836   9.155 -1.2229  0.2224  1.1826
 1050SOL    HW2 4592   0.383   0.753   9.226  0.6118  0.9355 -0.5641
 1051SOL     OW 4593   7.720   2.727   8.552 -0.3877  0.4782 -0.2301
 1051SOL    HW1 4594   7.705   2.810   8.506 -0.9184 -0.0541 -1.0391
 1051SOL    HW2 4595   7.652   2.669   8.519 -0.1149 -0.2406  0.4493
 1052SOL     OW 4596   7.188   1.205   8.227  0.1170  0.5647  0.7438
 1052SOL    HW1 4597   7.252   1.273   8.249  0.3321  0.3436  0.7969
 1052SOL    HW2 4598   7.123   1.251   8.173 -0.8163  1.3040  2.4020
 1053SOL     OW 4599   0.356   6.771   8.095 -0.0564  0.0751  0.4538
 1053SOL    HW1 4600   0.265   6.754   8.116  0.3384 -1.8234  0.8629
 1053SOL    HW2 4601   0.366   6.742   8.005  0.4098 -0.9928  0.8288
 1054SOL     OW 4602   2.045   6.495  10.014 -0.2324 -0.0237  0.6017
 1054SOL    HW1 4603   2.069   6.526  10.102  0.7157 -0.1089  0.3779
 1054SOL    HW2 4604   1.950   6.486  10.018 -0.4792  2.0992  0.9535
 1055SOL     OW 4605   0.317   0.407   8.632 -0.8015 -0.4672 -0.0288
 1055SOL    HW1 4606   0.243   0.464   8.610  1.0430  2.3384  0.5447
 1055SOL    HW2 4607   0.379   0.421   8.560  0.1830 -0.8106  0.7431
 1056SOL     OW 4608   4.005   0.770   9.341 -0.1574  0.2819  0.3472
 1056SOL    HW1 4609   3.993   0.863   9.320 -0.4696 -0.1660 -1.6618
 1056SOL    HW2 4610   4.047   0.771   9.427 -2.1106  2.2125  1.3921
 1057SOL     OW 4611   7.867   0.022   7.713 -0.6507  0.4432  0.0127
 1057SOL    HW1 4612   7.775   0.004   7.734 -0.1420 -2.8092  0.0639
 1057SOL    HW2 4613   7.890  -0.045   7.648  1.4226  1.8355 -0.7900
 1058SOL     OW 4614   0.828   0.895   7.414 -0.2877  0.2609 -0.1090
 1058SOL    HW1 4615   0.737   0.863   7.407  0.2506 -1.3391 -0.3147
 1058SOL    HW2 4616   0.875   0.823   7.456  1.3833  0.0050 -2.2669
 1059SOL     OW 4617   7.810   0.122   9.891 -0.3307 -0.3373  0.0866
 1059SOL    HW1 4618   7.726   0.075   9.896 -0.1974 -0.8783 -1.9083
 1059SOL    HW2 4619   7.875   0.053   9.875  0.3571  0.1978  0.5139
 1060SOL     OW 4620   3.205   0.495   8.994 -0.1807  0.2711 -0.1594
 1060SOL    HW1 4621   3.215   0.408   8.956  0.0423  0.8011 -1.3503
 1060SOL    HW2 4622   3.165   0.547   8.925 -0.1779  1.1532  0.4859
 1061SOL     OW 4623   7.975   1.533   7.576 -0.2905 -0.1802  0.0058
 1061SOL    HW1 4624   7.957   1.625   7.593 -0.0942 -0.4954  2.3232
 1061SOL    HW2 4625   7.895   1.488   7.604  0.6732 -0.8925  1.7487
 1062SOL     OW 4626   1.937   7.276   9.618 -0.0214 -0.1446  0.7131
 1062SOL    HW1 4627   2.026   7.262   9.585 -0.8138 -1.9923 -0.8580
 1062SOL    HW2 4628   1.947   7.279   9.713  1.7968  0.5013  0.5452
 1063SOL     OW 4629   1.249   7.560   8.286 -0.2247  0.4042  0.2616
 1063SOL    HW1 4630   1.309   7.541   8.358 -1.8538 -2.0208  1.1088
 1063SOL    HW2 4631   1.196   7.480   8.277 -4.0517  2.6696  0.3163
 1064SOL     OW 4632   7.176   0.947   8.285 -0.5221  0.1816  0.0076
 1064SOL    HW1 4633   7.140   0.904   8.208  0.7034 -0.6234 -0.1470
 1064SOL    HW2 4634   7.169   1.041   8.265 -0.1724 -0.0167 -1.1172
 1065SOL     OW 4635   1.714   0.700   7.907  0.1078 -0.1781 -0.1042
 1065SOL    HW1 4636   1.687   0.623   7.858  0.8607  0.5534 -1.7393
 1065SOL    HW2 4637   1.652   0.768   7.882 -1.2534 -0.4812  2.2042
 1066SOL     OW 4638   2.787   0.285   9.789 -0.5798  0.2474 -0.4321
 1066SOL    HW1 4639   2.749   0.239   9.864 -1.2790 -1.4686 -1.7770
 1066SOL    HW2 4640   2.732   0.363   9.780 -2.0809 -0.7802 -0.6201
 1067SOL     OW 4641   1.671   0.761   5.823 -0.3074  0.3047  0.7929
 1067SOL    HW1 4642   1.760   0.795   5.826 -0.7595  1.6195 -0.1544
 1067SOL    HW2 4643   1.638   0.787   5.738 -0.9152 -1.9883  0.2646
 1068SOL     OW 4644   0.824   1.116   9.094 -0.0804 -0.1042 -0.3714
 1068SOL    HW1 4645   0.785   1.036   9.059  1.5069 -0.4287 -1.4815
 1068SOL    HW2 4646   0.904   1.088   9.137  0.7224  0.9220 -1.1507
 1069SOL     OW 4647   1.755   0.495   8.263 -0.2567  0.0754 -0.3393
 1069SOL    HW1 4648   1.781   0.444   8.340  0.9012  0.4048 -0.4849
 1069SOL    HW2 4649   1.673   0.537   8.289  0.0564  0.0857  0.6838
 1070SOL     OW 4650   1.856   1.769   7.234  0.8891 -0.1254 -0.5433
 1070SOL    HW1 4651   1.902   1.775   7.318 -0.9976 -2.0180  0.7260
 1070SOL    HW2 4652   1.827   1.859   7.217 -0.2189  0.0535  1.8061
 1071SOL     OW 4653   3.285   2.538  10.396  0.0835 -0.0334  0.2735
 1071SOL    HW1 4654   3.272   2.562  10.488 -1.5033 -0.6785  0.2559
 1071SOL    HW2 4655   3.312   2.619  10.354 -0.8493  0.6969  1.0169
 1072SOL     OW 4656   0.688   1.128   8.322 -0.0585  0.0942 -0.9070
 1072SOL    HW1 4657   0.772   1.085   8.307  1.1019  0.9754  2.3318
 1072SOL    HW2 4658   0.636   1.064   8.370 -0.2665  0.4619 -0.6307
 1073SOL     OW 4659   0.213   2.070   8.454  0.2990  0.0886  0.1383
 1073SOL    HW1 4660   0.138   2.016   8.430  1.2285 -0.5320 -1.4930
 1073SOL    HW2 4661   0.283   2.008   8.473  1.2252  0.6623 -1.2251
 1074SOL     OW 4662   2.640   1.296   9.023 -0.0955 -0.1338 -0.0699
 1074SOL    HW1 4663   2.619   1.324   8.934 -0.5889  0.5670  0.2643
 1074SOL    HW2 4664   2.724   1.250   9.014  0.2150  0.5469 -0.7830
 1075SOL     OW 4665   0.881   6.771   7.976  0.0085 -0.8249  0.1318
 1075SOL    HW1 4666   0.885   6.716   7.898 -0.9627  0.0677 -0.5748
 1075SOL    HW2 4667   0.814   6.731   8.030 -1.0264 -0.1139 -0.5882
 1076SOL     OW 4668   0.780   1.732   9.084 -0.2579  0.1323  0.5982
 1076SOL    HW1 4669   0.701   1.701   9.039  1.3020 -2.1201 -0.7888
 1076SOL    HW2 4670   0.767   1.708   9.175 -1.8097  1.2373  0.7171
 1077SOL     OW 4671   4.360   0.787  10.381  0.1031 -0.7259  0.7333
 1077SOL    HW1 4672   4.333   0.712  10.329  0.1187 -1.6303  1.9990
 1077SOL    HW2 4673   4.305   0.859  10.349 -0.6170 -1.4990  0.1919
 1078SOL     OW 4674   6.418   0.134  10.112 -0.0079 -0.1482  0.1298
 1078SOL    HW1 4675   6.368   0.053  10.108 -0.4663  0.1152  0.4208
 1078SOL    HW2 4676   6.483   0.119  10.180 -0.4300 -0.0932  0.5553
 1079SOL     OW 4677   2.575   1.667   8.404 -0.2344 -0.0186 -0.6859
 1079SOL    HW1 4678   2.646   1.678   8.468  0.7597 -0.6999 -1.6324
 1079SOL    HW2 4679   2.550   1.756   8.380  0.9792  0.2379 -1.0569
 1080SOL     OW 4680   2.149   0.051   7.862  1.3509 -0.2595  0.3241
 1080SOL    HW1 4681   2.096  -0.027   7.845  1.5286  0.0914 -2.1398
 1080SOL    HW2 4682   2.239   0.018   7.866  1.3503 -0.2819  0.1365
 1081SOL     OW 4683   2.087   7.905   8.684 -0.3722  0.4608 -0.1884
 1081SOL    HW1 4684   2.142   7.983   8.685  0.3245 -0.0192 -0.3474
 1081SOL    HW2 4685   2.022   7.920   8.753  1.5360 -0.0420  1.8259
 1082SOL     OW 4686   1.388   0.367   7.693 -0.2685  0.0423 -0.8651
 1082SOL    HW1 4687   1.349   0.429   7.754 -1.4393 -2.6109  1.2666
 1082SOL    HW2 4688   1.314   0.315   7.660  0.6025  0.0009 -2.9583
 1083SOL     OW 4689   2.906   1.421   8.063  0.3794 -0.1757  0.5120
 1083SOL    HW1 4690   2.836   1.480   8.088  0.2723 -0.2834  0.4692
 1083SOL    HW2 4691   2.973   1.477   8.024 -0.6283 -0.3009 -1.5510
 1084SOL     OW 4692   1.591   0.252   6.323 -0.3162  0.0902 -0.0166
 1084SOL    HW1 4693   1.512   0.306   6.325 -0.3934 -0.0279  0.1831
 1084SOL    HW2 4694   1.623   0.254   6.413  0.3800  0.8230 -0.2709
 1085SOL     OW 4695   0.682   0.307   7.102 -0.2215 -0.4384  0.2857
 1085SOL    HW1 4696   0.627   0.279   7.029 -1.9543 -0.7905  1.6582
 1085SOL    HW2 4697   0.738   0.232   7.120 -1.6551 -1.3906  0.9942
 1086SOL     OW 4698   4.325   0.679   9.156  0.1540 -0.8326 -0.2474
 1086SOL    HW1 4699   4.322   0.585   9.137  1.1573 -0.6942 -1.2038
 1086SOL    HW2 4700   4.252   0.716   9.106 -0.8976 -1.2006  0.9470
 1087SOL     OW 4701   0.559   1.015   7.870  0.6826 -0.2219  0.4927
 1087SOL    HW1 4702   0.501   1.006   7.794  0.5587  2.3919  0.2147
 1087SOL    HW2 4703   0.642   0.977   7.840 -0.2507 -2.2051  0.2319
 1088SOL     OW 4704   0.584   1.500   8.550  0.0879 -0.2962 -0.2140
 1088SOL    HW1 4705   0.570   1.551   8.470  0.0796  2.3218  1.3521
 1088SOL    HW2 4706   0.677   1.477   8.548  0.1987  0.1852 -0.7282
 1089SOL     OW 4707   0.848   2.424  10.380 -0.1378  0.2642  0.2314
 1089SOL    HW1 4708   0.878   2.373  10.305  0.7559  0.4986  0.4142
 1089SOL    HW2 4709   0.769   2.469  10.349  0.8734  1.3012 -0.9602
 1090SOL     OW 4710   7.884   7.377   9.191 -0.6267  0.3797  0.3621
 1090SOL    HW1 4711   7.885   7.314   9.119  2.7130  1.3275 -0.5848
 1090SOL    HW2 4712   7.915   7.327   9.267  1.8749  0.7149 -0.3546
 1091SOL     OW 4713   0.736   0.148  10.027  0.1909  0.0117  0.0423
 1091SOL    HW1 4714   0.672   0.096   9.979  0.5959 -0.2364 -0.2426
 1091SOL    HW2 4715   0.696   0.164  10.112 -0.8475  1.0616 -0.6086
 1092SOL     OW 4716   7.755   2.317  11.788  0.5803  0.2324  0.3557
 1092SOL    HW1 4717   7.812   2.281  11.856  1.9084  0.5695 -0.5552
 1092SOL    HW2 4718   7.692   2.371  11.836 -1.2089 -2.8132  1.7435
 1093SOL     OW 4719   0.951   0.437   8.748  0.3478  0.1595 -0.0871
 1093SOL    HW1 4720   1.038   0.414   8.717  0.1111 -2.2804  0.8627
 1093SOL    HW2 4721   0.893   0.414   8.675  0.3940  1.2860 -0.5130
 1094SOL     OW 4722   3.996   1.622   9.373 -0.9874 -0.3032 -0.3784
 1094SOL    HW1 4723   4.075   1.651   9.327  0.0318  0.4218  1.7039
 1094SOL    HW2 4724   4.004   1.658   9.461 -1.6496 -3.5684  1.1903
 1095SOL     OW 4725   3.938   1.189   9.543 -0.3582  0.8321  0.4129
 1095SOL    HW1 4726   3.916   1.265   9.489 -1.1562  0.3062 -0.0352
 1095SOL    HW2 4727   3.944   1.117   9.480  0.0384  0.4601  0.8732
 1096SOL     OW 4728   1.885   1.203   9.756  0.1881  0.0094 -0.5152
 1096SOL    HW1 4729   1.867   1.283   9.804 -0.7103 -0.8347  0.6086
 1096SOL    HW2 4730   1.839   1.135   9.804 -2.7820 -0.6120 -3.8198
 1097SOL     OW 4731   7.176   0.668   8.433 -0.1824  0.2805  0.4060
 1097SOL    HW1 4732   7.189   0.573   8.431  1.7651  0.4933 -0.2318
 1097SOL    HW2 4733   7.219   0.699   8.353  1.8684  1.9170  1.9998
 1098SOL     OW 4734   7.607   1.883  11.239  0.1302 -0.0137 -0.0683
 1098SOL    HW1 4735   7.635   1.849  11.324  1.1210  0.3375 -0.2427
 1098SOL    HW2 4736   7.642   1.972  11.235 -0.5442  0.2449 -0.5442
 1099SOL     OW 4737   2.144   0.899  10.609  0.4147  0.3499 -0.0115
 1099SOL    HW1 4738   2.106   0.812  10.598  3.6483 -1.0615 -1.3233
 1099SOL    HW2 4739   2.161   0.906  10.703  1.9418 -1.3991 -0.0875
 1100SOL     OW 4740   0.601   1.089   9.474 -0.4786 -0.7485  0.1056
 1100SOL    HW1 4741   0.675   1.081   9.534 -1.2747 -0.3541  1.1901
 1100SOL    HW2 4742   0.526   1.059   9.526 -1.1036 -0.9362 -0.8941
 1101SOL     OW 4743   1.354   0.341   9.855 -0.2841 -0.5693 -0.3834
 1101SOL    HW1 4744   1.389   0.429   9.841 -0.6165 -0.2378  0.7684
 1101SOL    HW2 4745   1.280   0.336   9.795  1.1176 -0.9401 -2.1639
 1102SOL     OW 4746   0.270   7.950  10.909  0.4614  0.3553  0.0817
 1102SOL    HW1 4747   0.261   7.869  10.858 -1.9090 -0.3412  1.4711
 1102SOL    HW2 4748   0.200   8.006  10.878  1.3787  1.4542 -0.0553
 1103SOL     OW 4749   1.412   1.243  10.453 -0.0571  0.2246 -0.1003
 1103SOL    HW1 4750   1.410   1.300  10.376  1.0637  1.3872  0.7001
 1103SOL    HW2 4751   1.501   1.208  10.454 -0.0145  0.3466  0.7677
 1104SOL     OW 4752   7.559   1.613  10.844  0.7296  0.0890  0.2772
 1104SOL    HW1 4753   7.580   1.690  10.897 -0.6917  0.0066  0.9957
 1104SOL    HW2 4754   7.562   1.644  10.754  1.5506  0.6321  0.4783
 1105SOL     OW 4755   0.788   1.145   8.013  0.3521  0.0952  0.1342
 1105SOL    HW1 4756   0.695   1.163   7.997  0.5293  3.3655  1.8946
 1105SOL    HW2 4757   0.789   1.087   8.089 -0.2414  0.4630  0.4243
 1106SOL     OW 4758   0.146   2.379  10.993  0.0074 -0.6123  0.3657
 1106SOL    HW1 4759   0.085   2.419  10.931  1.1672 -1.9389 -1.7722
 1106SOL    HW2 4760   0.099   2.304  11.029 -1.0391  0.7401  1.9895
 1107SOL     OW 4761   0.976   3.330   9.613 -0.1634  0.1114 -0.4107
 1107SOL    HW1 4762   1.028   3.407   9.589 -1.1156  0.3761 -1.7212
 1107SOL    HW2 4763   1.001   3.263   9.549 -0.6449 -0.1035 -0.3777
 1108SOL     OW 4764   1.023   1.788  10.934 -0.8340 -0.0112  0.0083
 1108SOL    HW1 4765   0.937   1.762  10.966 -0.6321 -0.4224  0.2239
 1108SOL    HW2 4766   1.024   1.883  10.943 -1.6475  0.1019 -0.9688
 1109SOL     OW 4767   0.655   0.600   9.908  0.3082  0.4311  0.4752
 1109SOL    HW1 4768   0.701   0.621   9.827  1.6155 -1.3103  0.6972
 1109SOL    HW2 4769   0.563   0.616   9.889  0.8451  3.2241 -0.2616
 1110SOL     OW 4770   6.756   7.938   9.197  0.0452 -0.3000  0.4226
 1110SOL    HW1 4771   6.705   7.954   9.117  2.0957 -1.9096 -1.3155
 1110SOL    HW2 4772   6.748   7.844   9.212  1.5670 -0.4003  0.7492
 1111SOL     OW 4773   2.849   1.408   9.473 -0.2112 -0.5231  0.3959
 1111SOL    HW1 4774   2.794   1.402   9.551  0.2279  0.1546  0.7686
 1111SOL    HW2 4775   2.806   1.351   9.409 -0.2286 -1.5817  1.3325
 1112SOL     OW 4776   7.704   1.411  10.410  0.0383 -0.5521 -0.2586
 1112SOL    HW1 4777   7.668   1.483  10.462  1.5552  0.8634 -1.0479
 1112SOL    HW2 4778   7.761   1.364  10.471  0.1993 -0.1579 -0.0983
 1113SOL     OW 4779   2.961   2.187   9.972  0.6464  0.2322  0.3348
 1113SOL    HW1 4780   3.037   2.128   9.972  0.0612 -0.5496 -0.1036
 1113SOL    HW2 4781   2.998   2.273   9.992  1.5843 -0.2034  0.5865
 1114SOL     OW 4782   1.423   1.717  10.747  0.2651  0.2492  0.6795
 1114SOL    HW1 4783   1.460   1.669  10.673  0.6322 -0.2201  1.1624
 1114SOL    HW2 4784   1.499   1.739  10.801 -0.0643  0.0763  1.2155
 1115SOL     OW 4785   7.150   1.661  12.185  0.0420 -0.1763  0.4497
 1115SOL    HW1 4786   7.152   1.669  12.089  1.4539  0.7332  0.5298
 1115SOL    HW2 4787   7.086   1.727  12.213  0.5552  0.4362  0.1988
 1116SOL     OW 4788   5.949   1.798   9.368  0.2575 -0.2115  0.4853
 1116SOL    HW1 4789   5.873   1.746   9.342  1.6508 -1.3126 -1.6968
 1116SOL    HW2 4790   5.936   1.882   9.324  0.7385 -0.7489 -0.7406
 1117SOL     OW 4791   2.087   1.484   9.759 -0.1405  0.2342 -0.7911
 1117SOL    HW1 4792   2.042   1.568   9.767 -0.6260 -0.1011  0.2396
 1117SOL    HW2 4793   2.126   1.470   9.846  1.1543  0.0690 -1.3868
 1118SOL     OW 4794   0.568   7.972   9.841  0.5426  0.6703 -0.3911
 1118SOL    HW1 4795   0.532   8.016   9.764  0.2319 -0.3408 -0.8324
 1118SOL    HW2 4796   0.591   7.884   9.811  3.4786  1.2348 -0.1732
 1119SOL     OW 4797   0.102   0.001  11.831  0.1010 -0.0434 -0.2823
 1119SOL    HW1 4798   0.116  -0.092  11.812  0.6937  0.0959 -0.5540
 1119SOL    HW2 4799   0.079   0.003  11.924 -0.6147 -0.5244 -0.4403
 1120SOL     OW 4800   2.295   0.285  10.239 -0.9730 -0.3418 -0.7803
 1120SOL    HW1 4801   2.271   0.243  10.156 -0.4011 -0.7951 -0.7188
 1120SOL    HW2 4802   2.292   0.379  10.220 -0.8355 -0.4450 -1.3148
 1121SOL     OW 4803   2.346   1.780  11.648  0.2641  0.1847  0.2950
 1121SOL    HW1 4804   2.270   1.837  11.661 -1.6158 -1.6310 -1.8878
 1121SOL    HW2 4805   2.410   1.835  11.602 -1.1771  0.8235 -1.0245
 1122SOL     OW 4806   1.445   1.184  10.013  0.0793  0.1167 -0.0825
 1122SOL    HW1 4807   1.430   1.169   9.920 -0.6539 -0.8761  0.1796
 1122SOL    HW2 4808   1.491   1.268  10.017 -0.2047  0.3438 -1.3066
 1123SOL     OW 4809   2.657   1.126   8.328  0.1253 -0.0223 -0.1160
 1123SOL    HW1 4810   2.571   1.164   8.308  0.5983  1.2872  0.2748
 1123SOL    HW2 4811   2.666   1.054   8.266 -1.1565 -0.0345 -0.3217
 1124SOL     OW 4812   4.101   1.830  10.345  0.0816 -0.1385 -0.4244
 1124SOL    HW1 4813   4.014   1.805  10.317 -0.0177 -1.4241  0.9109
 1124SOL    HW2 4814   4.151   1.748  10.346  1.6619  0.7167 -2.2309
 1125SOL     OW 4815   0.445   0.481  11.721 -0.2847  0.6723  0.3555
 1125SOL    HW1 4816   0.500   0.403  11.713  1.3738  1.6807  1.3035
 1125SOL    HW2 4817   0.361   0.455  11.685  0.8422 -0.9170 -1.2864
 1126SOL     OW 4818   0.861   1.818   9.734  0.0410 -0.7778 -0.8704
 1126SOL    HW1 4819   0.937   1.869   9.705 -0.2781  0.3907  0.2716
 1126SOL    HW2 4820   0.828   1.866   9.810  0.5822 -3.4527  1.1969
 1127SOL     OW 4821   1.764   2.196  10.101  0.7801  0.7017 -0.4259
 1127SOL    HW1 4822   1.830   2.127  10.101 -0.2065 -0.2685 -0.6746
 1127SOL    HW2 4823   1.792   2.256  10.169  0.9737 -0.6352  0.7168
 1128SOL     OW 4824   0.158   1.267  10.807  0.3582  0.2261 -0.1599
 1128SOL    HW1 4825   0.109   1.205  10.753 -1.1013  0.6622  0.6030
 1128SOL    HW2 4826   0.116   1.262  10.893  1.9799  0.2912  0.6745
 1129SOL     OW 4827   1.840   0.395  11.014 -0.1682  0.0759 -0.2963
 1129SOL    HW1 4828   1.774   0.345  11.061 -0.1157 -0.1033 -0.4094
 1129SOL    HW2 4829   1.896   0.328  10.974  0.6261  0.2132  0.5549
 1130SOL     OW 4830   0.109   1.935  11.097 -0.2675  0.5057  0.2363
 1130SOL    HW1 4831   0.193   1.981  11.090  0.0555 -0.1298 -0.1159
 1130SOL    HW2 4832   0.089   1.936  11.191  0.7804 -0.4684  0.4953
 1131SOL     OW 4833   2.744   1.291  10.214 -0.0357  1.0514 -0.1228
 1131SOL    HW1 4834   2.749   1.289  10.118 -0.9477  2.1192 -0.2113
 1131SOL    HW2 4835   2.759   1.382  10.237 -0.8030  0.9877  0.6810
 1132SOL     OW 4836   1.396   2.682   9.320  0.5070 -0.1709  0.0632
 1132SOL    HW1 4837   1.390   2.728   9.404 -0.5818 -0.5876  0.2237
 1132SOL    HW2 4838   1.309   2.690   9.282  0.8696 -0.3849 -0.8269
 1133SOL     OW 4839   7.311   0.367  11.124 -0.0083 -0.2055  0.4834
 1133SOL    HW1 4840   7.302   0.406  11.211 -0.5377  1.5959 -0.3367
 1133SOL    HW2 4841   7.227   0.384  11.081  0.1158 -1.3832 -0.2817
 1134SOL     OW 4842   1.235   7.458  10.806 -0.2686 -0.7157 -0.0356
 1134SOL    HW1 4843   1.166   7.524  10.814 -0.5263 -0.7889 -1.3390
 1134SOL    HW2 4844   1.198   7.393  10.746  1.2239 -0.3295 -1.4534
 1135SOL     OW 4845   0.784   7.954   9.465 -0.3243 -0.2001  0.5799
 1135SOL    HW1 4846   0.818   7.899   9.394 -1.1505  0.1032 -0.0711
 1135SOL    HW2 4847   0.707   7.907   9.497 -0.0592 -0.2450  1.1682
 1136SOL     OW 4848   3.128   1.233   0.818  0.5439 -0.1548 -0.2329
 1136SOL    HW1 4849   3.144   1.178   0.741  1.3966  0.7145 -0.7056
 1136SOL    HW2 4850   3.034   1.228   0.832  0.4724 -0.9160 -0.8756
 1137SOL     OW 4851   2.648   1.882   9.673  0.3115 -0.4354 -0.3052
 1137SOL    HW1 4852   2.633   1.851   9.583  1.5469 -1.0268 -0.3195
 1137SOL    HW2 4853   2.743   1.889   9.680  0.3548 -2.2760  1.5919
 1138SOL     OW 4854   0.692   0.654   9.495  0.6611  0.3115  0.4895
 1138SOL    HW1 4855   0.672   0.636   9.403  0.8335  2.2040  0.0444
 1138SOL    HW2 4856   0.771   0.603   9.513  0.5754 -0.1453 -0.3674
 1139SOL     OW 4857   0.592   1.509   9.726 -0.5618  0.0155  0.6381
 1139SOL    HW1 4858   0.677   1.490   9.687  0.9248  2.0801  2.6297
 1139SOL    HW2 4859   0.533   1.518   9.651  1.4126  0.4844 -0.9583
 1140SOL     OW 4860   1.233   1.827  11.754 -0.1244 -0.5811  0.2924
 1140SOL    HW1 4861   1.254   1.745  11.710  2.2869 -0.1735  0.5508
 1140SOL    HW2 4862   1.184   1.877  11.688 -2.3439 -2.4589  0.4023
 1141SOL     OW 4863   1.108   1.178  10.482  0.1590 -0.0956  0.8944
 1141SOL    HW1 4864   1.201   1.198  10.467  0.0326 -1.0525 -1.7546
 1141SOL    HW2 4865   1.064   1.262  10.471  0.4878 -0.1071 -0.8462
 1142SOL     OW 4866   0.986   1.055  11.038  0.3983  0.1417  0.1329
 1142SOL    HW1 4867   1.062   1.054  10.981  0.1870  0.6840 -0.1611
 1142SOL    HW2 4868   0.928   0.988  11.000  0.0275  0.8674 -0.6181
 1143SOL     OW 4869   0.120   0.922   9.763 -0.2479  0.2429  0.0049
 1143SOL    HW1 4870   0.208   0.925   9.725 -0.5975 -0.0708 -0.8653
 1143SOL    HW2 4871   0.096   1.014   9.778  0.1812  0.3324  0.1423
 1144SOL     OW 4872   1.750   2.180   9.830  0.1728  0.2178  0.2957
 1144SOL    HW1 4873   1.755   2.251   9.766  0.5524  0.0863  0.1762
 1144SOL    HW2 4874   1.745   2.224   9.915 -1.6355  0.4296  0.1352
 1145SOL     OW 4875   5.924   1.344  12.141  0.2150  0.5472  0.0869
 1145SOL    HW1 4876   5.928   1.390  12.225 -1.1710  0.3902  0.2612
 1145SOL    HW2 4877   5.876   1.403  12.084  1.6807  0.9252 -0.8084
 1146SOL     OW 4878   0.602   2.604   9.140  0.0001 -0.5512 -0.5135
 1146SOL    HW1 4879   0.510   2.577   9.144 -0.2717  0.3517 -0.5067
 1146SOL    HW2 4880   0.599   2.697   9.119  0.9452 -0.7088 -1.4491
 1147SOL     OW 4881   0.442   0.116  10.499 -0.2267 -0.1755  0.3225
 1147SOL    HW1 4882   0.385   0.120  10.575  1.1901  0.4747  1.4008
 1147SOL    HW2 4883   0.493   0.197  10.502  0.4381 -0.5219 -0.8342
 1148SOL     OW 4884   1.571   0.909  11.494 -0.1095  0.1820  0.2733
 1148SOL    HW1 4885   1.642   0.958  11.536 -0.4438  0.7119  0.2270
 1148SOL    HW2 4886   1.576   0.934  11.402 -1.6673  1.8789  0.6019
 1149SOL     OW 4887   0.769   0.517   9.085 -0.0216 -0.2690 -0.2072
 1149SOL    HW1 4888   0.801   0.426   9.082 -0.3467 -0.3570 -2.5781
 1149SOL    HW2 4889   0.847   0.569   9.102  0.0918 -0.9707  1.7428
 1150SOL     OW 4890   0.838   0.265   9.043 -0.0644 -0.8448  0.9580
 1150SOL    HW1 4891   0.797   0.237   8.961  0.8410 -0.7491  0.4612
 1150SOL    HW2 4892   0.824   0.191   9.103  0.1688 -1.3431  0.4014
 1151SOL     OW 4893   7.995   7.387  10.274  0.1379 -0.2381  0.1380
 1151SOL    HW1 4894   8.043   7.467  10.297  2.2413 -1.3756 -0.1718
 1151SOL    HW2 4895   7.977   7.396  10.180  0.7112 -0.2998  0.0213
 1152SOL     OW 4896   0.451   1.007  10.063  0.3523  0.4162 -0.4171
 1152SOL    HW1 4897   0.527   0.953  10.085  0.2282  0.4167  0.0102
 1152SOL    HW2 4898   0.488   1.094  10.045  0.3366  0.7358  0.9806
 1153SOL     OW 4899   1.689   7.334  10.648 -0.1164  0.3417  0.1264
 1153SOL    HW1 4900   1.693   7.418  10.694  4.6959  1.0088 -0.9409
 1153SOL    HW2 4901   1.659   7.358  10.560  0.0016  0.7272  0.1871
 1154SOL     OW 4902   0.320   0.273   9.746  0.5108  0.4677  0.0048
 1154SOL    HW1 4903   0.278   0.236   9.668 -0.0092 -0.2530  0.6028
 1154SOL    HW2 4904   0.249   0.318   9.792 -0.2185 -2.4869  2.0778
 1155SOL     OW 4905   2.244   0.561  10.166  0.2144  0.0569 -0.0784
 1155SOL    HW1 4906   2.161   0.575  10.212  0.2093  0.9858 -0.3427
 1155SOL    HW2 4907   2.304   0.624  10.206  0.6399 -0.2327 -0.2604
 1156SOL     OW 4908   0.734   7.321   9.240 -0.5715 -0.3332 -0.0666
 1156SOL    HW1 4909   0.767   7.409   9.222  0.7081 -0.5527  0.9726
 1156SOL    HW2 4910   0.690   7.329   9.325  0.4919 -0.8849  0.5571
 1157SOL     OW 4911   0.086   1.895  10.439 -0.0607 -0.6749 -0.0100
 1157SOL    HW1 4912   0.074   1.986  10.415 -0.2351 -0.1264  1.9558
 1157SOL    HW2 4913   0.142   1.859  10.371 -1.3142  0.4521 -1.7019
 1158SOL     OW 4914   7.824   6.878   0.047  0.5105 -0.6655 -0.0820
 1158SOL    HW1 4915   7.762   6.887  -0.025  0.3234  1.7045  0.3016
 1158SOL    HW2 4916   7.892   6.820   0.013 -0.1743 -0.5419 -1.7470
 1159SOL     OW 4917   7.569   6.557   9.471  0.1820 -0.3128  0.0402
 1159SOL    HW1 4918   7.552   6.469   9.506 -0.7297  0.2847  1.1291
 1159SOL    HW2 4919   7.664   6.566   9.476  0.1209 -0.3077  2.3136
 1160SOL     OW 4920   7.553   1.020  11.190 -0.0221  0.2070 -1.0259
 1160SOL    HW1 4921   7.618   1.052  11.128  0.3945 -0.8509 -1.1583
 1160SOL    HW2 4922   7.524   0.936  11.153 -1.2674  0.5379 -0.8297
 1161SOL     OW 4923   0.903   0.915  10.053 -0.4529 -0.0069 -0.8725
 1161SOL    HW1 4924   0.968   0.961  10.106 -0.0677 -0.4019 -0.9928
 1161SOL    HW2 4925   0.873   0.980   9.990 -0.6596  0.3670 -0.3978
 1162SOL     OW 4926   2.443   0.739   8.254 -0.4265  0.4296 -0.1894
 1162SOL    HW1 4927   2.523   0.751   8.306  1.6165 -0.9140 -2.7461
 1162SOL    HW2 4928   2.392   0.818   8.270  2.5819  2.5632 -0.2710
 1163SOL     OW 4929   7.004   7.240   9.730 -0.4056 -0.9439  0.3865
 1163SOL    HW1 4930   7.047   7.189   9.798  1.6315 -0.0421 -0.1513
 1163SOL    HW2 4931   7.028   7.331   9.749 -1.0988 -0.5217 -0.6498
 1164SOL     OW 4932   7.964   2.764   9.659 -0.2508 -0.1451  0.1184
 1164SOL    HW1 4933   7.877   2.777   9.623  0.1308 -2.0860 -1.6728
 1164SOL    HW2 4934   8.018   2.740   9.584  1.9099  1.1772  1.1324
 1165SOL     OW 4935   7.795   1.219  10.583  0.0171  0.1690  0.5666
 1165SOL    HW1 4936   7.712   1.172  10.578 -0.5906  1.3535 -1.5103
 1165SOL    HW2 4937   7.777   1.292  10.643 -0.0522 -0.2473  1.0658
 1166SOL     OW 4938   0.760   2.273   9.589  0.0199  0.0957  0.6462
 1166SOL    HW1 4939   0.738   2.339   9.523  0.5146 -0.2843  0.0893
 1166SOL    HW2 4940   0.798   2.201   9.539  0.1249 -0.3282  1.3205
 1167SOL     OW 4941   7.243   0.829   9.001  0.3507  0.0302  0.3117
 1167SOL    HW1 4942   7.325   0.781   8.986  1.0078  1.0189  0.6187
 1167SOL    HW2 4943   7.189   0.808   8.926  1.3187  0.2051 -0.4595
 1168SOL     OW 4944   0.772   2.581   8.714  0.3545 -0.0862 -0.1544
 1168SOL    HW1 4945   0.816   2.648   8.662  1.7321 -1.5204 -0.9245
 1168SOL    HW2 4946   0.739   2.518   8.650 -2.1523  0.4866  0.4670
 1169SOL     OW 4947   1.257   0.821   9.001 -0.4652  0.3377  0.0096
 1169SOL    HW1 4948   1.332   0.773   9.036 -1.7586 -2.3259 -0.5738
 1169SOL    HW2 4949   1.291   0.907   8.979  1.4872  0.5683  3.3213
 1170SOL     OW 4950   7.056   7.263  10.077 -0.1665  0.0026  0.1859
 1170SOL    HW1 4951   7.081   7.236   9.989 -0.4211 -0.3953  0.2361
 1170SOL    HW2 4952   7.064   7.359  10.076  0.0218 -0.0170 -0.2066
 1171SOL     OW 4953   0.485   0.326   9.961 -0.1493 -0.4413 -0.1301
 1171SOL    HW1 4954   0.422   0.328   9.889 -0.1589 -0.5180 -0.1230
 1171SOL    HW2 4955   0.434   0.296  10.037  0.0976 -1.3763 -0.3240
 1172SOL     OW 4956   0.039   1.349  10.304  0.2963  0.0633 -0.4526
 1172SOL    HW1 4957  -0.003   1.282  10.250  0.8859 -0.5585 -0.1502
 1172SOL    HW2 4958   0.102   1.391  10.245  1.6381 -1.2666 -0.0228
 1173SOL     OW 4959   0.886   1.141  10.707  0.1628  0.1154  0.0490
 1173SOL    HW1 4960   0.939   1.093  10.643 -1.0927  0.0613 -0.9858
 1173SOL    HW2 4961   0.931   1.225  10.717 -0.7996  1.0469 -2.6701
 1174SOL     OW 4962   4.211   1.520   9.641  0.7135  0.4254  0.2113
 1174SOL    HW1 4963   4.205   1.526   9.545  0.8331  0.1481  0.1862
 1174SOL    HW2 4964   4.261   1.440   9.657 -1.0551 -0.6635  0.5386
 1175SOL     OW 4965   0.986   1.529   9.894 -0.0790 -0.2275 -0.4099
 1175SOL    HW1 4966   1.011   1.443   9.928 -0.1006 -0.0639  0.0280
 1175SOL    HW2 4967   1.067   1.580   9.894 -0.0436 -0.2801 -0.7751
 1176SOL     OW 4968   2.817   7.770   8.517  0.2841 -0.0424 -0.1745
 1176SOL    HW1 4969   2.893   7.806   8.563  0.3804 -0.0461 -0.3314
 1176SOL    HW2 4970   2.772   7.846   8.480  0.3402 -0.0596 -0.2787
 1177SOL     OW 4971   2.470   2.910   8.986 -0.3550  0.3798 -0.7479
 1177SOL    HW1 4972   2.401   2.956   8.938 -1.9155 -0.2949  0.7814
 1177SOL    HW2 4973   2.494   2.837   8.929  0.2477  1.4915 -1.9871
 1178SOL     OW 4974   1.496   7.981   9.803 -0.0079 -0.6783 -0.2040
 1178SOL    HW1 4975   1.468   7.890   9.788  2.1429 -1.6428  1.1904
 1178SOL    HW2 4976   1.578   7.989   9.753  1.1147 -0.3242  1.6141
 1179SOL     OW 4977   1.356   1.069   9.206 -0.0507  0.8914  0.0027
 1179SOL    HW1 4978   1.407   1.132   9.257 -0.4373  1.0459  0.2004
 1179SOL    HW2 4979   1.379   1.088   9.115  1.2001  0.1368  0.1329
 1180SOL     OW 4980   1.665   7.751  11.078 -0.1791  0.4754 -0.8970
 1180SOL    HW1 4981   1.580   7.783  11.109 -0.2246 -0.2675 -0.1990
 1180SOL    HW2 4982   1.691   7.685  11.143  0.6113  0.2022 -1.4654
 1181SOL     OW 4983   0.916   3.466  11.172 -0.2287  0.3155  0.3361
 1181SOL    HW1 4984   0.946   3.453  11.082  0.0898 -0.9709  0.6069
 1181SOL    HW2 4985   0.821   3.461  11.167 -0.1752 -2.7685  0.4298
 1182SOL     OW 4986   0.886   0.657  11.978  0.2550 -0.1147 -0.2092
 1182SOL    HW1 4987   0.885   0.688  12.069 -0.1041  1.5413 -0.7465
 1182SOL    HW2 4988   0.826   0.582  11.979  1.5575 -1.2048  1.2450
 1183SOL     OW 4989   2.069   2.250  10.921  0.1587  0.4642  0.1455
 1183SOL    HW1 4990   2.051   2.271  10.830  2.5846 -2.3887 -1.1465
 1183SOL    HW2 4991   2.125   2.322  10.952  0.1665  0.9398 -0.9415
 1184SOL     OW 4992   2.646   0.471  11.754  0.3956 -0.4694  0.1538
 1184SOL    HW1 4993   2.698   0.438  11.680  0.2903  1.1518 -0.6710
 1184SOL    HW2 4994   2.709   0.475  11.826  1.0562  0.0367 -0.4354
 1185SOL     OW 4995   1.633   0.121   9.461  0.3766  0.2475  0.3597
 1185SOL    HW1 4996   1.653   0.153   9.373  1.1306  0.1324  0.4864
 1185SOL    HW2 4997   1.563   0.057   9.447  1.7270 -1.1203 -0.3857
 1186SOL     OW 4998   0.448   7.655  11.120  0.2635 -0.4569 -0.4560
 1186SOL    HW1 4999   0.357   7.655  11.091  0.1018 -0.4726  0.0364
 1186SOL    HW2 5000   0.490   7.725  11.069 -0.5266  1.0020  0.8013
 1187SOL     OW 5001   0.516   0.618   9.247 -0.1220  0.2665  0.0656
 1187SOL    HW1 5002   0.484   0.533   9.216 -1.7148  1.1657 -0.8565
 1187SOL    HW2 5003   0.578   0.646   9.180  1.3835 -0.6998  0.9993
 1188SOL     OW 5004   1.353   1.056   8.921  0.4243 -0.3535  0.4247
 1188SOL    HW1 5005   1.423   1.079   8.860  0.9654  1.2538  1.5590
 1188SOL    HW2 5006   1.281   1.116   8.900  0.9591  0.8865  1.8916
 1189SOL     OW 5007   7.765   0.699  11.048 -0.8035  0.1744 -0.2272
 1189SOL    HW1 5008   7.722   0.719  11.131  0.1130 -0.6859  0.4763
 1189SOL    HW2 5009   7.805   0.613  11.061  2.0586  1.3533 -0.4079
 1190SOL     OW 5010   0.501   1.676  10.128  0.4800  0.4835 -0.3255
 1190SOL    HW1 5011   0.576   1.619  10.108 -0.0677 -0.3871  0.0815
 1190SOL    HW2 5012   0.436   1.655  10.061 -0.2696 -0.4001  0.6509
 1191SOL     OW 5013   0.069   1.521   8.048  0.0553  0.4272 -0.9333
 1191SOL    HW1 5014   0.071   1.601   7.995 -0.9164 -0.4829 -2.4173
 1191SOL    HW2 5015   0.161   1.501   8.066  0.3377  1.4295 -1.2334
 1192SOL     OW 5016   2.180   1.531  10.016 -0.1601 -0.2960  0.1880
 1192SOL    HW1 5017   2.192   1.621  10.047  0.5971 -0.0341 -0.7951
 1192SOL    HW2 5018   2.113   1.494  10.074 -0.7700  1.0229  0.3583
 1193SOL     OW 5019   7.809   1.341  11.062  0.2484 -0.3948  0.2563
 1193SOL    HW1 5020   7.894   1.297  11.065  0.0901 -0.9657 -1.8531
 1193SOL    HW2 5021   7.816   1.401  10.987 -1.0984 -0.2340  0.2336
 1194SOL     OW 5022   3.096   7.743   8.913 -0.0951 -0.3502  0.2907
 1194SOL    HW1 5023   3.191   7.731   8.920 -0.1401 -1.5940 -0.9012
 1194SOL    HW2 5024   3.080   7.757   8.820 -0.8066  2.9336  0.7675
 1195SOL     OW 5025   7.657   2.598   9.710  0.4083 -0.6349  0.2089
 1195SOL    HW1 5026   7.696   2.520   9.671 -0.1297 -0.7970 -0.0077
 1195SOL    HW2 5027   7.728   2.636   9.762  1.4029  0.0794 -1.6040
 1196SOL     OW 5028   1.135   7.615  12.093  0.4101 -0.5898  0.1459
 1196SOL    HW1 5029   1.184   7.688  12.131  1.0362 -1.3290  0.7940
 1196SOL    HW2 5030   1.098   7.651  12.012 -1.3738  1.1653  1.6441
 1197SOL     OW 5031   3.289   0.717  10.314  0.1021 -0.3796 -0.8230
 1197SOL    HW1 5032   3.208   0.758  10.344  0.1012  0.4241 -1.8564
 1197SOL    HW2 5033   3.261   0.631  10.281  0.0880 -1.2182  1.2546
 1198SOL     OW 5034   7.470   0.687  10.469 -0.0526  0.0539  0.3917
 1198SOL    HW1 5035   7.497   0.760  10.413 -2.0887  1.0495  0.5977
 1198SOL    HW2 5036   7.510   0.706  10.554  1.7307 -0.6139 -0.2549
 1199SOL     OW 5037   1.548   1.638   9.467 -0.7145  0.1271  0.2703
 1199SOL    HW1 5038   1.503   1.689   9.400 -1.5473 -1.1196 -0.1600
 1199SOL    HW2 5039   1.623   1.599   9.422 -0.3390  0.6057  0.4808
 1200SOL     OW 5040   0.926   0.817  10.474 -0.1065 -0.6043  0.1402
 1200SOL    HW1 5041   0.876   0.736  10.478 -1.1381 -0.0241 -0.6661
 1200SOL    HW2 5042   1.006   0.794  10.427 -0.7154 -1.0031 -0.7202
 1201SOL     OW 5043   3.266   1.604   9.847  0.5726  0.3787 -0.6181
 1201SOL    HW1 5044   3.299   1.515   9.836 -1.8342 -0.7814  0.5628
 1201SOL    HW2 5045   3.202   1.615   9.776 -0.2324  0.5484  0.1066
 1202SOL     OW 5046   0.831   1.132   9.880  0.2380 -0.3689 -0.5120
 1202SOL    HW1 5047   0.875   1.182   9.949 -0.1847 -3.8464  2.5887
 1202SOL    HW2 5048   0.744   1.114   9.915  1.1672 -5.3161 -0.0654
 1203SOL     OW 5049   7.641   7.571  11.177  0.0226 -0.1931 -0.4169
 1203SOL    HW1 5050   7.716   7.515  11.197 -1.4589 -1.7283  1.1392
 1203SOL    HW2 5051   7.650   7.645  11.238  0.4714 -0.1459 -0.5333
 1204SOL     OW 5052   1.432   1.148   9.751  0.3032 -0.3088  0.3525
 1204SOL    HW1 5053   1.479   1.205   9.689 -0.6317  2.1582  1.7959
 1204SOL    HW2 5054   1.362   1.109   9.699  0.6122  0.3169 -0.5598
 1205SOL     OW 5055   7.635   6.803  11.049 -0.4237 -0.2894  0.1887
 1205SOL    HW1 5056   7.603   6.728  10.999 -0.7953 -0.5080  0.7411
 1205SOL    HW2 5057   7.569   6.815  11.118  0.0102  0.0852  0.5421
 1206SOL     OW 5058   0.861   1.080   9.608 -0.3130  0.3540  0.4647
 1206SOL    HW1 5059   0.865   1.111   9.698  1.7788 -0.4289  0.6953
 1206SOL    HW2 5060   0.860   1.160   9.555 -0.3459  0.8148  1.1523
 1207SOL     OW 5061   0.245   7.296   9.994 -0.2338 -0.0512  0.1206
 1207SOL    HW1 5062   0.268   7.287   9.902  0.7616 -0.7625  0.4146
 1207SOL    HW2 5063   0.150   7.309   9.995 -0.7583 -2.9758 -0.8669
 1208SOL     OW 5064   2.005   7.445   8.092 -0.2622  0.0986  0.1506
 1208SOL    HW1 5065   1.930   7.416   8.144  0.9663  1.4743  2.9236
 1208SOL    HW2 5066   2.062   7.369   8.088 -0.6578 -0.2085  0.2657
 1209SOL     OW 5067   0.212   0.501  10.559 -0.6214 -1.1140 -0.2735
 1209SOL    HW1 5068   0.305   0.513  10.541 -0.5232 -1.2743  0.1128
 1209SOL    HW2 5069   0.168   0.534  10.481 -0.3155  0.4866  0.1975
 1210SOL     OW 5070   1.921   1.428  10.667  0.9059 -0.3139  0.6203
 1210SOL    HW1 5071   1.982   1.445  10.739  2.2832 -1.0553 -0.3078
 1210SOL    HW2 5072   1.876   1.511  10.653  0.7592 -0.1038  2.1831
 1211SOL     OW 5073   6.667   1.882   9.970  0.4327 -0.2214 -0.1409
 1211SOL    HW1 5074   6.661   1.815  10.039  1.1021  0.9982  1.1626
 1211SOL    HW2 5075   6.674   1.832   9.889  2.5585 -1.7823  0.9041
 1212SOL     OW 5076   1.531   0.977  10.893 -0.2174  0.1453  0.2396
 1212SOL    HW1 5077   1.503   0.966  10.984 -1.7638 -1.3041 -0.3406
 1212SOL    HW2 5078   1.596   1.046  10.895  0.3701 -0.3984  2.5657
 1213SOL     OW 5079   2.614   1.599  10.524 -0.0432  0.2103  0.2234
 1213SOL    HW1 5080   2.673   1.665  10.488  2.1596 -0.5557  2.1229
 1213SOL    HW2 5081   2.607   1.533  10.454  0.1497  1.0207 -0.5816
 1214SOL     OW 5082   1.896   0.215   8.987  0.0039  0.3490 -0.1079
 1214SOL    HW1 5083   1.849   0.248   9.064 -0.7510 -0.6830 -0.1145
 1214SOL    HW2 5084   1.917   0.294   8.937  1.8615  1.2379  1.8559
 1215SOL     OW 5085   2.372   2.197   8.966 -0.2883  0.0698 -0.1101
 1215SOL    HW1 5086   2.438   2.206   8.897 -0.6881 -1.7243 -0.7943
 1215SOL    HW2 5087   2.383   2.107   8.997 -0.3273  0.7463  1.9948
 1216SOL     OW 5088   7.525   0.736   8.933 -0.7194 -0.1052  0.6437
 1216SOL    HW1 5089   7.564   0.820   8.908  0.5020 -0.4921  1.1993
 1216SOL    HW2 5090   7.537   0.680   8.856 -2.3464  0.4480 -0.0770
 1217SOL     OW 5091   7.732   0.797  10.782 -0.6076  0.0134  0.2665
 1217SOL    HW1 5092   7.800   0.792  10.714 -0.5923  1.6200  0.1056
 1217SOL    HW2 5093   7.768   0.749  10.856  0.5314  0.4691  0.0307
 1218SOL     OW 5094   0.148   6.850  11.398 -0.2901 -0.1281  0.3477
 1218SOL    HW1 5095   0.104   6.767  11.383 -0.3892 -0.5873  2.8055
 1218SOL    HW2 5096   0.201   6.836  11.476  1.6501  1.4053 -0.5806
 1219SOL     OW 5097   1.964   7.809  11.497  0.3839  0.3115  0.5774
 1219SOL    HW1 5098   1.935   7.900  11.506 -1.1815 -0.2138  0.9998
 1219SOL    HW2 5099   2.041   7.815  11.440 -1.6269  1.5958 -2.2511
 1220SOL     OW 5100   0.143   2.055  10.001  0.0757  0.3742 -0.0064
 1220SOL    HW1 5101   0.194   2.014  10.071  0.4879 -3.0181 -2.0844
 1220SOL    HW2 5102   0.053   2.052  10.032  0.4791  1.1140  1.3093
 1221SOL     OW 5103   7.823   2.559   9.984  0.4075 -0.0042  0.8638
 1221SOL    HW1 5104   7.788   2.570  10.072 -2.5347  4.7694 -0.5339
 1221SOL    HW2 5105   7.773   2.487   9.946 -1.4358  0.7147  1.8221
 1222SOL     OW 5106   0.676   2.159  10.400  0.1168 -0.0582  0.1843
 1222SOL    HW1 5107   0.755   2.191  10.356 -0.1213 -0.6418 -0.7007
 1222SOL    HW2 5108   0.698   2.161  10.493  1.2325 -0.3610 -0.0605
 1223SOL     OW 5109   1.787   7.925  10.894  0.4383  0.1073  0.3514
 1223SOL    HW1 5110   1.761   7.860  10.959 -0.1979  0.2920  0.2819
 1223SOL    HW2 5111   1.706   7.950  10.851  0.8250  0.1279 -0.3881
 1224SOL     OW 5112   7.152   1.139   9.981 -0.5578  0.5590 -0.0731
 1224SOL    HW1 5113   7.088   1.204  10.010 -0.6651  1.2235 -1.6990
 1224SOL    HW2 5114   7.203   1.119  10.060 -1.1492  1.8935  0.6894
 1225SOL     OW 5115   0.928   6.390   0.082  0.0509 -0.4356 -0.5232
 1225SOL    HW1 5116   1.002   6.433   0.126 -0.4622  0.2979 -0.3548
 1225SOL    HW2 5117   0.890   6.459   0.026  1.0785 -1.4951 -2.6616
 1226SOL     OW 5118   6.918   7.715  11.544 -0.1701 -0.1087  0.0225
 1226SOL    HW1 5119   6.860   7.648  11.507 -0.2554 -0.2883  0.4669
 1226SOL    HW2 5120   6.905   7.792  11.489  0.9872 -0.8711 -1.3965
 1227SOL     OW 5121   0.706   1.614  10.341  0.0556  0.2032 -0.0390
 1227SOL    HW1 5122   0.741   1.703  10.349 -0.6451  0.5503 -0.6921
 1227SOL    HW2 5123   0.621   1.626  10.297  0.5241 -0.8907 -1.3122
 1228SOL     OW 5124   0.117   0.995  10.404  0.0911 -0.6804 -0.5565
 1228SOL    HW1 5125   0.164   1.007  10.321  0.1977 -0.8591 -0.5204
 1228SOL    HW2 5126   0.024   1.001  10.379  0.1194  1.9783 -0.2998
 1229SOL     OW 5127   0.970   2.942  10.849  0.4231  0.1638  0.1616
 1229SOL    HW1 5128   0.899   2.915  10.908  1.4272  0.3364  1.4933
 1229SOL    HW2 5129   0.944   3.029  10.819  0.0074  0.1712  0.5274
 1230SOL     OW 5130   0.136   0.403   9.886  0.4309  0.4666  0.3400
 1230SOL    HW1 5131   0.121   0.489   9.846 -0.0253 -0.4305 -1.5476
 1230SOL    HW2 5132   0.066   0.395   9.951  0.4608  1.4968  0.5180
 1231SOL     OW 5133   1.107   2.414   9.964  0.3575  0.1176  0.2395
 1231SOL    HW1 5134   1.183   2.469   9.981 -0.3631  1.1508  0.2442
 1231SOL    HW2 5135   1.080   2.438   9.875 -0.5894  0.5702  0.6296
 1232SOL     OW 5136   0.863   6.883   8.599  0.4169 -0.2695 -0.2332
 1232SOL    HW1 5137   0.866   6.821   8.672  3.2128 -0.5200 -0.4701
 1232SOL    HW2 5138   0.922   6.846   8.534  0.3026  1.4747 -1.3896
 1233SOL     OW 5139   7.148   0.430  10.768 -0.1587  0.0892  0.1371
 1233SOL    HW1 5140   7.082   0.443  10.837  1.1320  0.1836  1.3977
 1233SOL    HW2 5141   7.113   0.479  10.693 -0.9331  1.2046  1.1753
 1234SOL     OW 5142   2.456   0.952  10.515  0.4956  0.4064 -0.6430
 1234SOL    HW1 5143   2.435   0.888  10.583 -2.2021  1.1430 -0.6990
 1234SOL    HW2 5144   2.549   0.936  10.496  0.3731 -2.2899  0.5472
 1235SOL     OW 5145   0.593   1.428   9.413 -0.1615  0.1070  0.2894
 1235SOL    HW1 5146   0.572   1.365   9.345  1.4059  1.3988 -1.5092
 1235SOL    HW2 5147   0.508   1.453   9.450 -0.8699 -2.4224  0.5741
 1236SOL     OW 5148   1.590   7.367  10.403 -0.0524  0.0068 -0.0585
 1236SOL    HW1 5149   1.552   7.391  10.319  0.5143  1.3632  0.0376
 1236SOL    HW2 5150   1.521   7.318  10.448 -0.4983 -0.3771 -1.1454
 1237SOL     OW 5151   1.570   0.207  10.883  1.1434 -0.1897  0.0086
 1237SOL    HW1 5152   1.509   0.193  10.810  0.0371  0.4735  0.7748
 1237SOL    HW2 5153   1.656   0.209  10.842  0.7834 -2.1407 -1.0005
 1238SOL     OW 5154   7.701   3.218  10.042  0.2239  0.1129  0.7017
 1238SOL    HW1 5155   7.788   3.186  10.018 -0.2518 -0.3936 -0.4245
 1238SOL    HW2 5156   7.641   3.165   9.989 -0.6810  1.7442  0.0426
 1239SOL     OW 5157   2.510   2.239  11.226 -0.4640  0.0183  0.0542
 1239SOL    HW1 5158   2.495   2.293  11.149 -0.3509  1.2926  0.9023
 1239SOL    HW2 5159   2.460   2.159  11.209 -0.9918  0.5652 -1.0378
 1240SOL     OW 5160   1.942   0.488   9.665  0.0652 -0.4333  0.2862
 1240SOL    HW1 5161   1.861   0.465   9.710  0.2636 -0.9197  0.4024
 1240SOL    HW2 5162   1.974   0.565   9.712 -1.5209  1.2374 -1.2122
 1241SOL     OW 5163   2.577   7.824   9.356  0.4179  0.2365  0.3619
 1241SOL    HW1 5164   2.632   7.889   9.311 -1.2519  0.7069 -1.1219
 1241SOL    HW2 5165   2.506   7.876   9.395  0.9519 -0.3557  2.2394
 1242SOL     OW 5166   6.048   0.136  10.079 -0.2825  0.3241  0.1065
 1242SOL    HW1 5167   6.036   0.209  10.141 -0.3682  0.4610 -0.0710
 1242SOL    HW2 5168   6.091   0.068  10.131  0.9691  0.9666 -0.0427
 1243SOL     OW 5169   0.288   2.528   8.698  0.4995 -0.1354  0.7073
 1243SOL    HW1 5170   0.230   2.488   8.633  0.5861  0.5291  0.2171
 1243SOL    HW2 5171   0.374   2.527   8.657  0.3674  1.2958  0.3312
 1244SOL     OW 5172   7.755   0.461  12.297  0.2730  0.0505 -0.2255
 1244SOL    HW1 5173   7.816   0.416  12.238 -0.6090 -0.5152 -0.7295
 1244SOL    HW2 5174   7.793   0.450  12.384  0.5949 -0.8172 -0.4623
 1245SOL     OW 5175   2.903   7.687  10.199 -0.0501  0.3129  0.3492
 1245SOL    HW1 5176   2.981   7.741  10.210 -1.9864  2.9452  2.2094
 1245SOL    HW2 5177   2.914   7.616  10.262  0.5273  1.0500  1.0919
 1246SOL     OW 5178   0.373   0.920  11.827  0.2666  0.6109  0.0396
 1246SOL    HW1 5179   0.393   1.004  11.869  0.9828  0.3842  0.1582
 1246SOL    HW2 5180   0.457   0.874  11.822  0.2658  0.7295 -1.8899
 1247SOL     OW 5181   1.223   0.054   9.881  0.3619 -0.5220  0.2963
 1247SOL    HW1 5182   1.206   0.111   9.806 -0.1849  0.6945  1.2930
 1247SOL    HW2 5183   1.312   0.077   9.909 -0.2452  0.7004  1.3566
 1248SOL     OW 5184   0.093   2.443  10.556  0.4466 -0.4064  0.2810
 1248SOL    HW1 5185   0.143   2.497  10.496  1.6200 -2.0855 -0.3469
 1248SOL    HW2 5186   0.017   2.496  10.580  1.9264  1.7729  0.3524
 1249SOL     OW 5187   3.220   1.255   9.043 -0.0623  0.0459  0.1134
 1249SOL    HW1 5188   3.128   1.228   9.033  0.0599 -0.7065  0.8869
 1249SOL    HW2 5189   3.265   1.209   8.972 -0.2369  0.1829 -0.0880
 1250SOL     OW 5190   2.754   2.017  10.906  0.4252  0.5369  0.0912
 1250SOL    HW1 5191   2.792   1.969  10.980  2.2044  0.8633 -0.5606
 1250SOL    HW2 5192   2.784   1.969  10.828 -1.1010  0.4191 -0.4624
 1251SOL     OW 5193   1.733   0.969   9.512  0.0726  0.1044 -0.0372
 1251SOL    HW1 5194   1.778   0.904   9.459 -0.1034  0.8796 -1.1696
 1251SOL    HW2 5195   1.690   0.918   9.581 -2.2407 -1.3042 -2.3584
 1252SOL     OW 5196   1.436   1.400  10.254 -0.1238  0.3082  0.2329
 1252SOL    HW1 5197   1.441   1.386  10.159 -1.8475  1.2136 -0.0393
 1252SOL    HW2 5198   1.480   1.484  10.267 -0.7670  0.6820  0.0664
 1253SOL     OW 5199   7.396   3.406  11.384 -0.4405  0.2409 -0.2929
 1253SOL    HW1 5200   7.432   3.436  11.468 -0.9580  1.3904 -0.4658
 1253SOL    HW2 5201   7.464   3.350  11.347  0.6665  1.3926 -0.0489
 1254SOL     OW 5202   1.147   2.168  10.098 -0.7450  0.6776  0.2592
 1254SOL    HW1 5203   1.144   2.226  10.021 -1.2247 -0.3654 -0.5440
 1254SOL    HW2 5204   1.236   2.133  10.097 -0.7969  0.5472  0.0823
 1255SOL     OW 5205   7.847   2.687   9.250 -0.0554  0.6722 -0.2340
 1255SOL    HW1 5206   7.848   2.593   9.269  0.3627  0.9239  1.0772
 1255SOL    HW2 5207   7.925   2.701   9.196  1.2475  0.6100  1.5318
 1256SOL     OW 5208   0.719   0.276   9.705  0.0392  0.6672 -0.4818
 1256SOL    HW1 5209   0.795   0.281   9.647 -1.0724  2.0201 -1.9007
 1256SOL    HW2 5210   0.668   0.203   9.670  0.3869  0.1097  0.1408
 1257SOL     OW 5211   0.367   1.489   9.547 -0.2164  0.3408  0.1862
 1257SOL    HW1 5212   0.289   1.458   9.594 -0.0077 -0.0651  0.2744
 1257SOL    HW2 5213   0.333   1.550   9.481 -0.7772 -0.9291 -0.7460
 1258SOL     OW 5214   2.282   7.435   8.598  0.1962 -0.0320  0.0926
 1258SOL    HW1 5215   2.300   7.346   8.569  0.2541  0.0661 -0.1795
 1258SOL    HW2 5216   2.238   7.476   8.523 -0.1802  0.0514  0.3586
 1259SOL     OW 5217   7.809   1.639  11.746  0.0900  0.0546  0.4373
 1259SOL    HW1 5218   7.838   1.721  11.707  0.9513  0.4350  1.8184
 1259SOL    HW2 5219   7.870   1.574  11.714 -0.0826  0.0909  0.0194
 1260SOL     OW 5220   1.957   7.347  11.043 -0.1744  0.4524 -0.1069
 1260SOL    HW1 5221   1.966   7.439  11.019 -1.7422  1.0892  1.4920
 1260SOL    HW2 5222   1.923   7.304  10.965  2.0008  0.8828 -1.3597
 1261SOL     OW 5223   7.536   6.816  10.241 -0.1183 -0.2047 -0.3542
 1261SOL    HW1 5224   7.445   6.835  10.262 -0.3009 -0.9332 -0.4589
 1261SOL    HW2 5225   7.586   6.852  10.315 -0.4722  0.3752 -0.3949
 1262SOL     OW 5226   1.501   0.770  10.676 -0.3469  0.3097  0.0960
 1262SOL    HW1 5227   1.410   0.752  10.652 -0.1814 -1.1785  0.4280
 1262SOL    HW2 5228   1.499   0.857  10.715 -2.0739 -0.5846  2.2411
 1263SOL     OW 5229   1.286   0.109   9.206 -0.3008 -0.3543 -0.8668
 1263SOL    HW1 5230   1.256   0.055   9.132  0.6016 -1.0924 -0.7131
 1263SOL    HW2 5231   1.208   0.156   9.235 -1.0629 -1.4087 -1.1553
 1264SOL     OW 5232   0.645   1.865  10.443 -0.1238 -0.1930 -0.0812
 1264SOL    HW1 5233   0.654   1.953  10.405  0.5662 -0.5524 -0.7802
 1264SOL    HW2 5234   0.560   1.866  10.487  0.5417  1.3424  1.2962
 1265SOL     OW 5235   0.911   7.949   9.981 -0.1230 -0.0607 -0.3372
 1265SOL    HW1 5236   0.853   8.019  10.010 -0.6095 -0.4831 -0.2661
 1265SOL    HW2 5237   0.997   7.990   9.974 -0.2787  0.3928  0.3038
 1266SOL     OW 5238   1.281   0.960  10.301 -0.3966  0.3807 -0.1023
 1266SOL    HW1 5239   1.249   1.009  10.377 -0.1475 -0.4704  0.5715
 1266SOL    HW2 5240   1.239   0.874  10.309  0.2822  0.0092 -0.4744
 1267SOL     OW 5241   2.129   0.778  11.650 -0.7401  0.1450  0.5043
 1267SOL    HW1 5242   2.071   0.759  11.577 -1.7022  0.1945  1.2307
 1267SOL    HW2 5243   2.164   0.865  11.633  0.1365 -0.3878 -0.5689
 1268SOL     OW 5244   7.623   1.349  10.142  0.1310 -0.1247  0.0032
 1268SOL    HW1 5245   7.638   1.415  10.073 -1.9199  0.8822  0.4489
 1268SOL    HW2 5246   7.676   1.380  10.216  0.6804 -0.0500 -0.4077
 1269SOL     OW 5247   6.626   2.806  10.910 -0.0387  0.1905 -0.1707
 1269SOL    HW1 5248   6.662   2.783  10.996 -0.5890  0.2215  0.0699
 1269SOL    HW2 5249   6.555   2.866  10.929  0.6860  1.2566 -0.7308
 1270SOL     OW 5250   0.354   1.657   9.806  0.0265  0.3373  0.1054
 1270SOL    HW1 5251   0.269   1.612   9.798 -0.2688  0.7821  0.6850
 1270SOL    HW2 5252   0.417   1.592   9.776 -0.6115  0.3999 -1.4689
 1271SOL     OW 5253   0.386   2.839  10.696  0.4431  0.2242  0.2507
 1271SOL    HW1 5254   0.465   2.815  10.743  0.2103  0.0637  0.5610
 1271SOL    HW2 5255   0.342   2.901  10.753  2.1386  3.2473 -1.4722
 1272SOL     OW 5256   0.282   0.813  11.519  0.5953  0.5977 -1.1003
 1272SOL    HW1 5257   0.376   0.813  11.537  0.5514 -0.1490 -0.8228
 1272SOL    HW2 5258   0.275   0.805  11.424  0.8618 -3.6345 -0.9556
 1273SOL     OW 5259   1.280   7.984  10.792  0.1033 -0.1731  0.1627
 1273SOL    HW1 5260   1.217   8.037  10.841  1.5947 -0.6877  2.8579
 1273SOL    HW2 5261   1.237   7.898  10.784 -0.9552  0.4450 -1.2817
 1274SOL     OW 5262   1.862   1.491  11.304 -0.6440  0.2381 -0.1479
 1274SOL    HW1 5263   1.946   1.485  11.350 -1.2086  1.7651  1.1639
 1274SOL    HW2 5264   1.829   1.401  11.303  0.7147 -0.2919 -0.1818
 1275SOL     OW 5265   1.771   1.424   9.915  0.0729 -0.1668  0.3361
 1275SOL    HW1 5266   1.676   1.432   9.904  0.1010 -0.0793  0.1519
 1275SOL    HW2 5267   1.802   1.513   9.929  0.3578  0.0716 -1.4963
 1276SOL     OW 5268   2.207   2.310  11.403 -0.2792  0.0104  0.3190
 1276SOL    HW1 5269   2.133   2.343  11.353 -0.4360 -0.2787  0.3572
 1276SOL    HW2 5270   2.190   2.216  11.411  0.8211 -0.3280 -0.9324
 1277SOL     OW 5271   2.268   0.857  10.050  0.5765 -0.4342 -0.3236
 1277SOL    HW1 5272   2.303   0.894   9.969  0.6324 -1.1692 -0.6474
 1277SOL    HW2 5273   2.345   0.832  10.100  0.5443 -1.2856 -0.6734
 1278SOL     OW 5274   0.373   7.691  11.385  0.0041 -1.0153  0.1235
 1278SOL    HW1 5275   0.398   7.675  11.294 -0.1041 -2.4056  0.3138
 1278SOL    HW2 5276   0.439   7.751  11.418 -1.4213  1.6783 -1.5935
 1279SOL     OW 5277   1.913   2.167  11.526 -0.4347 -0.3486  0.7061
 1279SOL    HW1 5278   1.828   2.191  11.491  0.4260  1.4944 -0.2445
 1279SOL    HW2 5279   1.951   2.249  11.558  2.0244 -0.5719 -1.2761
 1280SOL     OW 5280   0.593   0.753  11.837  0.8154 -0.4009 -0.1533
 1280SOL    HW1 5281   0.687   0.738  11.842  0.5863 -1.6780  0.7232
 1280SOL    HW2 5282   0.569   0.725  11.749  1.4355  1.1800 -0.8583
 1281SOL     OW 5283   0.726   2.673  10.116  0.0104  0.6672  0.3483
 1281SOL    HW1 5284   0.696   2.687  10.026  1.1127  2.3187  0.1959
 1281SOL    HW2 5285   0.670   2.604  10.150 -0.9690  0.5911 -1.3452
 1282SOL     OW 5286   0.050   0.118  10.746  0.4653 -0.2180 -0.0316
 1282SOL    HW1 5287  -0.025   0.160  10.788  0.6171 -0.1263  0.1435
 1282SOL    HW2 5288   0.116   0.187  10.738 -0.1091  0.1739 -1.7903
 1283SOL     OW 5289   2.142   6.841  11.831 -0.0859  0.6981 -0.5379
 1283SOL    HW1 5290   2.111   6.895  11.904  1.1055  1.9000 -0.8895
 1283SOL    HW2 5291   2.156   6.903  11.759  1.1524 -0.0842 -1.0009
 1284SOL     OW 5292   1.139   1.277   9.390 -0.5441  0.0425  0.5474
 1284SOL    HW1 5293   1.156   1.356   9.441 -0.2133 -0.1314  0.7079
 1284SOL    HW2 5294   1.043   1.268   9.391 -0.6425  0.9384 -0.2263
 1285SOL     OW 5295   2.531   2.199  12.026  0.7933  0.6727  0.1006
 1285SOL    HW1 5296   2.490   2.266  11.971  0.0747  1.4849  1.5707
 1285SOL    HW2 5297   2.601   2.245  12.072  0.5199  0.3390  0.8620
 1286SOL     OW 5298   6.960   0.313   9.909  0.4205  0.5078  0.0435
 1286SOL    HW1 5299   7.012   0.238   9.938 -0.5110 -0.0283  0.3796
 1286SOL    HW2 5300   6.946   0.365   9.988  0.3977  0.6184 -0.0324
 1287SOL     OW 5301   1.353   2.109   9.145  0.0919 -0.0795 -0.4072
 1287SOL    HW1 5302   1.359   2.094   9.051 -2.0208  0.2195 -0.6316
 1287SOL    HW2 5303   1.414   2.181   9.162  1.1412 -0.7010 -1.3723
 1288SOL     OW 5304   1.612   1.324   9.616  0.1934 -0.0648 -0.7696
 1288SOL    HW1 5305   1.706   1.316   9.599  0.4473  0.0537  0.4735
 1288SOL    HW2 5306   1.592   1.416   9.599  0.1648 -0.2181 -1.6133
 1289SOL     OW 5307   1.064   6.797  11.158  0.3749 -0.1107  0.4780
 1289SOL    HW1 5308   1.049   6.746  11.237  0.1535 -0.3883  0.2606
 1289SOL    HW2 5309   1.099   6.881  11.189  2.4307 -1.0079  0.7638
 1290SOL     OW 5310   2.683   1.785   8.944  0.1081 -0.4006 -0.2507
 1290SOL    HW1 5311   2.685   1.839   9.023  1.9631 -0.6495 -0.0958
 1290SOL    HW2 5312   2.727   1.704   8.969 -2.4264 -1.9750 -0.5506
 1291SOL     OW 5313   0.448   2.319   9.955 -0.0892  0.0671 -0.2335
 1291SOL    HW1 5314   0.399   2.264   9.894  3.1805 -1.6828 -1.5256
 1291SOL    HW2 5315   0.474   2.259  10.026  1.1719  0.5873 -0.2259
 1292SOL     OW 5316   0.836   6.103   8.878  0.2474 -0.4665  0.0604
 1292SOL    HW1 5317   0.781   6.024   8.887 -0.8316  0.2506 -0.1103
 1292SOL    HW2 5318   0.853   6.130   8.969  0.9053 -1.0796  0.1278
 1293SOL     OW 5319   1.199   0.545  10.190 -0.8830 -0.1703  0.2736
 1293SOL    HW1 5320   1.257   0.601  10.138 -0.8689 -0.0731  0.3957
 1293SOL    HW2 5321   1.220   0.456  10.161 -0.6784 -0.1355  0.3133
 1294SOL     OW 5322   2.299   0.801   9.633 -0.2363  0.0815  0.4274
 1294SOL    HW1 5323   2.338   0.835   9.713  1.5992  0.0081 -0.3783
 1294SOL    HW2 5324   2.324   0.708   9.632  0.0686  0.1674 -0.3969
 1295SOL     OW 5325   7.531   1.489   7.069 -0.4584 -0.5714  0.3793
 1295SOL    HW1 5326   7.536   1.409   7.017  1.5693 -1.0481  1.2206
 1295SOL    HW2 5327   7.486   1.463   7.149 -1.5789 -0.3603 -0.1566
 1296SOL     OW 5328   1.617   1.131   9.263 -0.0579  0.0232 -0.8798
 1296SOL    HW1 5329   1.602   1.077   9.185  0.0630 -0.5483 -0.5096
 1296SOL    HW2 5330   1.657   1.072   9.326  0.1142  0.5590 -0.4795
 1297SOL     OW 5331   0.266   0.691  11.091  0.6995 -0.0804  0.6256
 1297SOL    HW1 5332   0.312   0.740  11.159  0.5908  0.7355  0.1161
 1297SOL    HW2 5333   0.335   0.668  11.028  0.2694  2.1753 -0.7532
 1298SOL     OW 5334   0.806   0.552   0.496 -0.0021 -0.7921  0.6232
 1298SOL    HW1 5335   0.856   0.633   0.490 -0.0570 -0.8750 -1.4798
 1298SOL    HW2 5336   0.718   0.580   0.521  0.3922 -0.3917  1.6144
 1299SOL     OW 5337   1.008   1.050   0.432  0.3375  0.4112 -0.2501
 1299SOL    HW1 5338   1.080   1.043   0.370  0.1243  0.1692 -0.4748
 1299SOL    HW2 5339   1.014   1.139   0.467  0.2646  0.6551 -0.8530
 1300SOL     OW 5340   7.842   2.123   1.648  0.2560  0.5363 -0.1598
 1300SOL    HW1 5341   7.836   2.219   1.647  1.8741  0.7022 -2.8987
 1300SOL    HW2 5342   7.756   2.094   1.618 -0.1367  1.1310  0.3577
 1301SOL     OW 5343   1.686   0.408  11.644 -0.1759  0.3411 -0.2490
 1301SOL    HW1 5344   1.643   0.332  11.605 -0.7976 -0.2375  1.4341
 1301SOL    HW2 5345   1.625   0.480  11.629 -0.2901  0.1832 -0.5539
 1302SOL     OW 5346   1.253   0.659  12.068 -0.1300 -0.1201  0.2231
 1302SOL    HW1 5347   1.201   0.715  12.125 -1.5650 -0.5659 -0.5904
 1302SOL    HW2 5348   1.209   0.574  12.070 -1.0792  0.1936 -2.5595
 1303SOL     OW 5349   7.468   0.899   0.783  0.3589 -0.3237  0.6578
 1303SOL    HW1 5350   7.483   0.856   0.699 -2.5116  1.4096 -0.8777
 1303SOL    HW2 5351   7.439   0.829   0.841 -0.2492 -1.1506 -0.6025
 1304SOL     OW 5352   1.496   0.989  11.899  0.3647 -0.0234 -0.1314
 1304SOL    HW1 5353   1.538   1.057  11.847 -3.2520  1.7425 -1.0675
 1304SOL    HW2 5354   1.498   1.023  11.989 -0.2744  0.7535 -0.3985
 1305SOL     OW 5355   0.333   6.543  12.228 -0.4132 -0.1259 -0.0364
 1305SOL    HW1 5356   0.331   6.622  12.174 -3.4060  0.4012  0.6981
 1305SOL    HW2 5357   0.349   6.472  12.165  0.9828  0.8868 -0.8786
 1306SOL     OW 5358   7.370   1.539  11.028  0.0260 -0.0320  0.1339
 1306SOL    HW1 5359   7.404   1.461  11.073  0.4393  0.2638  0.3383
 1306SOL    HW2 5360   7.442   1.566  10.971  0.0234  0.4275  0.3469
 1307SOL     OW 5361   0.636   1.250  12.191 -0.3188  0.0553 -0.6686
 1307SOL    HW1 5362   0.588   1.239  12.273  0.1491  0.3964 -0.3439
 1307SOL    HW2 5363   0.709   1.187  12.197 -0.3081  0.0502 -0.8421
 1308SOL     OW 5364   7.828   2.161   0.193  0.0407 -0.3906 -0.0563
 1308SOL    HW1 5365   7.846   2.072   0.161  0.2896 -0.6543  0.7943
 1308SOL    HW2 5366   7.913   2.192   0.225 -0.3467 -0.4121  1.0184
 1309SOL     OW 5367   5.293   0.883   0.367  0.7487  0.2451 -0.4086
 1309SOL    HW1 5368   5.323   0.962   0.413  1.0131  0.1327 -0.3825
 1309SOL    HW2 5369   5.367   0.859   0.311  0.5009  0.2705 -0.7501
 1310SOL     OW 5370   0.035   3.170  11.272  0.7665  0.7120 -0.5728
 1310SOL    HW1 5371   0.083   3.096  11.311 -0.9561 -0.1454  0.0106
 1310SOL    HW2 5372   0.053   3.244  11.330 -0.4852 -0.1722  1.0240
 1311SOL     OW 5373   1.400   0.019   0.300 -0.4072  0.6644 -0.1815
 1311SOL    HW1 5374   1.353   0.027   0.217 -1.8572 -0.4947  0.4796
 1311SOL    HW2 5375   1.335  -0.015   0.362  1.4797 -2.0120  0.5537
 1312SOL     OW 5376   0.134   7.375  12.198  0.3730 -0.4948  0.4200
 1312SOL    HW1 5377   0.193   7.376  12.123  0.5481  0.4121  0.5651
 1312SOL    HW2 5378   0.048   7.399  12.162  0.9557  2.7139  0.8852
 1313SOL     OW 5379   1.028   1.325  11.538  0.7067 -0.3921 -0.0120
 1313SOL    HW1 5380   1.098   1.387  11.557 -0.3109  0.0839  2.6861
 1313SOL    HW2 5381   0.956   1.353  11.594 -1.3746 -1.3674 -2.0661
 1314SOL     OW 5382   0.495   2.215   0.819  0.1078 -0.1885  0.0950
 1314SOL    HW1 5383   0.440   2.137   0.828  0.8964 -0.6944  0.6728
 1314SOL    HW2 5384   0.447   2.271   0.758 -0.2913 -1.2985 -0.6460
 1315SOL     OW 5385   1.115   0.085  10.410  0.2493 -0.1853 -0.4499
 1315SOL    HW1 5386   1.198   0.054  10.376 -0.3322 -0.7803 -1.3878
 1315SOL    HW2 5387   1.073   0.007  10.446 -0.0080  0.0644 -0.2005
 1316SOL     OW 5388   2.309   0.787  11.362 -0.3197  0.1278  0.1836
 1316SOL    HW1 5389   2.375   0.824  11.420  0.4402 -0.2580 -0.4130
 1316SOL    HW2 5390   2.309   0.694  11.382  0.6088 -0.1653 -1.0357
 1317SOL     OW 5391   1.536   0.590  11.525  0.3090 -0.0731  0.2658
 1317SOL    HW1 5392   1.457   0.570  11.474 -0.8567  0.8690  1.5990
 1317SOL    HW2 5393   1.552   0.682  11.508 -0.1591  0.2853  1.6085
 1318SOL     OW 5394   1.578   0.571  10.854 -0.0752  0.0243 -0.4226
 1318SOL    HW1 5395   1.525   0.632  10.803 -3.1495 -0.7626  1.5733
 1318SOL    HW2 5396   1.627   0.626  10.914 -1.5963  0.6785  0.2693
 1319SOL     OW 5397   7.317   1.240  12.036  0.8639  0.1516 -0.2521
 1319SOL    HW1 5398   7.344   1.152  12.063  2.5801  1.0412  1.1460
 1319SOL    HW2 5399   7.222   1.234  12.028  1.0123 -2.1017 -1.3641
 1320SOL     OW 5400   1.260   7.794  12.254 -0.0917  0.3238 -0.6155
 1320SOL    HW1 5401   1.316   7.755  12.320 -1.8229 -2.9058 -0.8460
 1320SOL    HW2 5402   1.182   7.821  12.302 -0.2011  0.5879 -0.9359
 1321SOL     OW 5403   1.018   7.555  11.632 -0.2344 -0.0726 -0.4400
 1321SOL    HW1 5404   0.945   7.528  11.687  1.2107 -1.0570  1.0894
 1321SOL    HW2 5405   1.077   7.601  11.691  0.9353 -0.3222 -1.3715
 1322SOL     OW 5406   1.347   0.903  11.658 -0.2115  0.1281  0.5058
 1322SOL    HW1 5407   1.300   0.981  11.628 -3.6597 -1.4251  1.4501
 1322SOL    HW2 5408   1.424   0.899  11.601 -1.8705  2.1104 -2.1457
 1323SOL     OW 5409   2.039   2.058  10.500 -0.0644 -0.0718  0.0661
 1323SOL    HW1 5410   2.088   2.051  10.582 -0.0383  0.9539  0.1494
 1323SOL    HW2 5411   1.977   2.129  10.515 -0.0711  0.1168 -0.7969
 1324SOL     OW 5412   1.960   0.777  11.440  0.0642 -0.1819 -0.4982
 1324SOL    HW1 5413   1.898   0.705  11.426  1.2237 -1.1035 -1.0819
 1324SOL    HW2 5414   2.004   0.787  11.355  2.2544 -1.0477  0.4741
 1325SOL     OW 5415   0.449   0.147   0.266 -0.4583 -0.2913 -0.4422
 1325SOL    HW1 5416   0.406   0.218   0.218 -0.5663  0.8778  1.2693
 1325SOL    HW2 5417   0.542   0.155   0.243 -0.1084  1.8921  1.3807
 1326SOL     OW 5418   1.649   1.166  11.758  0.1012 -0.6649 -0.1679
 1326SOL    HW1 5419   1.686   1.170  11.846  0.5960 -4.4106 -0.0709
 1326SOL    HW2 5420   1.720   1.196  11.701  1.1336 -1.7965  0.4755
 1327SOL     OW 5421   7.360   0.685   0.070  0.8719 -0.1817 -0.0782
 1327SOL    HW1 5422   7.394   0.619   0.009  0.0583 -0.2727 -0.4409
 1327SOL    HW2 5423   7.275   0.709   0.034  1.0877  0.9540  0.1511
 1328SOL     OW 5424   0.294   0.328  12.293 -0.8854 -0.1687 -0.1704
 1328SOL    HW1 5425   0.218   0.376  12.261 -0.8555 -0.7499 -1.1487
 1328SOL    HW2 5426   0.354   0.395  12.323 -0.3693  0.5263 -2.5380
 1329SOL     OW 5427   7.507   7.525  11.811  0.0315 -0.1704 -0.3741
 1329SOL    HW1 5428   7.593   7.498  11.780  0.3076 -0.1774  0.4063
 1329SOL    HW2 5429   7.506   7.506  11.904 -1.4254 -1.7660 -0.6664
 1330SOL     OW 5430   0.500   2.841  12.033  0.8446  0.0294  0.2713
 1330SOL    HW1 5431   0.578   2.865  11.983  1.0181 -0.4390  0.3115
 1330SOL    HW2 5432   0.448   2.788  11.972  0.7529 -0.0002  0.3747
 1331SOL     OW 5433   1.123   0.054  11.049  0.5047  0.5206  0.4964
 1331SOL    HW1 5434   1.196   0.110  11.075 -0.2478  1.4091  0.7688
 1331SOL    HW2 5435   1.138  -0.029  11.094  0.4479  1.2618  1.9411
 1332SOL     OW 5436   1.165   0.534  11.537 -0.2821 -0.1079  0.4519
 1332SOL    HW1 5437   1.108   0.604  11.506 -0.2087  0.1117  0.8092
 1332SOL    HW2 5438   1.153   0.463  11.473 -1.0951 -0.1323  0.6185
 1333SOL     OW 5439   7.722   6.601   1.009 -0.0677 -0.4649 -0.0433
 1333SOL    HW1 5440   7.723   6.515   1.051  0.3556 -0.2785  0.3398
 1333SOL    HW2 5441   7.693   6.661   1.077  0.1727 -0.2248 -0.1484
 1334SOL     OW 5442   0.536   0.565  12.284 -0.4579  0.0674  0.4108
 1334SOL    HW1 5443   0.523   0.629  12.214  0.4075 -1.2659 -1.0596
 1334SOL    HW2 5444   0.577   0.615  12.355  1.6110  0.9238 -1.2558
 1335SOL     OW 5445   0.619   2.768  11.489  0.2921  0.1279  0.4077
 1335SOL    HW1 5446   0.629   2.835  11.421  0.2271 -1.1858 -0.9411
 1335SOL    HW2 5447   0.544   2.799  11.541 -0.1155  0.8094 -0.5477
 1336SOL     OW 5448   2.638   0.703  11.225 -0.0322  0.6475 -0.6723
 1336SOL    HW1 5449   2.608   0.616  11.198  0.7911  0.2551 -0.3321
 1336SOL    HW2 5450   2.568   0.736  11.282 -1.0526  0.8420 -1.9717
 1337SOL     OW 5451   7.558   0.887  10.295 -0.3757 -0.0621 -0.6818
 1337SOL    HW1 5452   7.628   0.851  10.241  0.1444 -0.8050  0.4495
 1337SOL    HW2 5453   7.576   0.981  10.298  0.3557 -0.1976 -0.7165
 1338SOL     OW 5454   2.157   0.969   9.421  0.5893 -0.0555 -0.3730
 1338SOL    HW1 5455   2.201   0.927   9.495  0.0932 -0.0946 -0.0977
 1338SOL    HW2 5456   2.200   1.054   9.412  1.0663 -0.2986 -0.4323
 1339SOL     OW 5457   1.878   0.020   9.862 -0.5405 -0.0269 -0.1262
 1339SOL    HW1 5458   1.833   0.059   9.786 -1.8599  0.0418  0.6631
 1339SOL    HW2 5459   1.869  -0.074   9.849 -1.7916 -0.0181  0.4975
 1340SOL     OW 5460   1.379   2.519  10.418  0.3899  0.1377  0.6166
 1340SOL    HW1 5461   1.284   2.504  10.414  0.2903 -0.0030  2.5816
 1340SOL    HW2 5462   1.391   2.579  10.492  1.8446  0.0997  0.4360
 1341SOL     OW 5463   7.503   2.046  10.904 -0.3624 -0.1177  0.1971
 1341SOL    HW1 5464   7.462   1.962  10.924 -0.3289 -0.3665 -0.7140
 1341SOL    HW2 5465   7.430   2.107  10.894 -0.4514 -0.2760 -0.1541
 1342SOL     OW 5466   7.281   7.597  12.260  0.0616  0.8020 -0.3903
 1342SOL    HW1 5467   7.210   7.655  12.287 -0.6055  0.2081 -0.8296
 1342SOL    HW2 5468   7.261   7.514  12.304  1.3398  1.0525  0.7409
 1343SOL     OW 5469   7.950   0.926  11.081  0.3466  0.8473 -0.2863
 1343SOL    HW1 5470   7.963   0.840  11.041 -0.0788  0.7264 -0.1696
 1343SOL    HW2 5471   7.862   0.952  11.055 -0.3789  0.2802  1.4558
 1344SOL     OW 5472   0.138   1.408   0.232  0.6930  0.0457 -0.2112
 1344SOL    HW1 5473   0.043   1.402   0.226  0.4579  0.5573  2.0993
 1344SOL    HW2 5474   0.164   1.329   0.280  1.4011  0.0615 -0.5556
 1345SOL     OW 5475   7.822   7.875   0.518 -0.2033 -0.0596  0.0594
 1345SOL    HW1 5476   7.765   7.909   0.587 -0.4479 -1.9654  0.8426
 1345SOL    HW2 5477   7.882   7.816   0.563  1.0809  0.3339 -1.0570
 1346SOL     OW 5478   0.627   0.765  10.395  0.2118  0.6468  0.2731
 1346SOL    HW1 5479   0.627   0.765  10.299 -0.4137 -0.5119  0.2532
 1346SOL    HW2 5480   0.570   0.838  10.419 -1.9896 -0.7901 -0.3054
 1347SOL     OW 5481   1.254   0.656  10.628 -0.3581 -0.0122 -0.2666
 1347SOL    HW1 5482   1.171   0.693  10.659 -0.3247  0.5576 -0.8328
 1347SOL    HW2 5483   1.265   0.577  10.680  0.3018  1.5079  2.0603
 1348SOL     OW 5484   2.510   7.385  12.232 -0.1039  0.5932 -0.4509
 1348SOL    HW1 5485   2.531   7.325  12.304  0.0132  1.4856  0.2750
 1348SOL    HW2 5486   2.419   7.409  12.246 -0.0373  0.8862 -0.5205
 1349SOL     OW 5487   0.890   0.179   1.458  0.2078 -0.0656  0.5900
 1349SOL    HW1 5488   0.924   0.267   1.440  0.8604 -0.6929 -1.6768
 1349SOL    HW2 5489   0.938   0.149   1.535  1.8992  0.6135 -0.1601
 1350SOL     OW 5490   2.574   1.049  11.639 -0.0304  0.0906  0.2879
 1350SOL    HW1 5491   2.518   1.043  11.716  0.4277  1.1171  0.7191
 1350SOL    HW2 5492   2.602   1.140  11.637 -1.3721  0.5245 -2.0650
 1351SOL     OW 5493   0.638   0.467  11.949 -0.5173 -0.1604  0.4408
 1351SOL    HW1 5494   0.575   0.508  11.890  2.0973  0.2617 -2.3218
 1351SOL    HW2 5495   0.679   0.399  11.896  1.2512 -0.5061  2.1376
 1352SOL     OW 5496   2.753   0.161  11.778  0.0382 -0.3491 -0.2994
 1352SOL    HW1 5497   2.823   0.185  11.717  0.6579 -1.2309  0.0419
 1352SOL    HW2 5498   2.797   0.110  11.846 -0.9404 -0.9207 -0.0750
 1353SOL     OW 5499   7.841   6.912  11.465  0.1350 -0.0775  0.2471
 1353SOL    HW1 5500   7.761   6.941  11.508  0.8452  3.2768 -0.4560
 1353SOL    HW2 5501   7.903   6.899  11.536 -0.7717 -2.1175  0.7438
 1354SOL     OW 5502   0.026   1.173  11.040  0.2506  0.1502  0.1161
 1354SOL    HW1 5503  -0.028   1.096  11.060  1.1932 -0.1701  1.5309
 1354SOL    HW2 5504   0.113   1.150  11.071  0.4467  1.9718  1.0294
 1355SOL     OW 5505   1.633   0.767   1.313  0.4216 -0.1637 -0.9271
 1355SOL    HW1 5506   1.682   0.692   1.282 -1.7570 -1.8002 -0.6966
 1355SOL    HW2 5507   1.695   0.817   1.366  1.6701 -2.3857 -0.1928
 1356SOL     OW 5508   0.426   0.501   9.530  0.5631  0.4592  0.0068
 1356SOL    HW1 5509   0.520   0.519   9.528  0.6132  0.1542 -0.5476
 1356SOL    HW2 5510   0.390   0.571   9.585  1.1862  0.2164  0.7492
 1357SOL     OW 5511   7.762   1.958   0.705  0.5586 -0.7608 -0.0292
 1357SOL    HW1 5512   7.732   1.930   0.619  0.6569  0.7569 -0.5891
 1357SOL    HW2 5513   7.750   1.881   0.761  1.4899 -2.1189 -1.6072
 1358SOL     OW 5514   0.748   7.072  11.997  0.0941 -0.1365  0.1789
 1358SOL    HW1 5515   0.708   7.046  11.914  1.1959  0.5607 -0.5895
 1358SOL    HW2 5516   0.711   7.158  12.016 -0.9338 -0.7261  0.9608
 1359SOL     OW 5517   1.964   0.628   0.191  0.2186 -0.0126 -0.1816
 1359SOL    HW1 5518   2.051   0.668   0.196 -0.2755  0.9983  0.7248
 1359SOL    HW2 5519   1.979   0.544   0.147  1.7594 -0.1965  0.6146
 1360SOL     OW 5520   3.783   1.545   0.591 -0.4622 -0.2167  0.3798
 1360SOL    HW1 5521   3.836   1.499   0.656 -1.4578 -1.2267  0.4938
 1360SOL    HW2 5522   3.806   1.638   0.603 -0.8489 -0.3306  2.3701
 1361SOL     OW 5523   1.460   0.649  11.794  0.9691 -0.1289 -0.7553
 1361SOL    HW1 5524   1.443   0.713  11.725 -0.1479 -1.7462 -2.0368
 1361SOL    HW2 5525   1.432   0.565  11.758  0.2667 -1.0395  1.6964
 1362SOL     OW 5526   0.187   7.594   9.973 -0.0918  1.1214  0.2822
 1362SOL    HW1 5527   0.132   7.521  10.002  1.0223  0.1935  0.1373
 1362SOL    HW2 5528   0.190   7.652  10.049  0.0238  0.3939  0.8460
 1363SOL     OW 5529   7.994   1.241  11.804 -0.5908 -0.3213  0.7878
 1363SOL    HW1 5530   8.044   1.174  11.756 -1.3383 -0.5608  0.3355
 1363SOL    HW2 5531   7.990   1.315  11.744  1.8866  0.9075  1.9919
 1364SOL     OW 5532   1.659   1.804  11.937  0.1596 -0.5538  0.4637
 1364SOL    HW1 5533   1.565   1.810  11.923 -0.1917  0.6948  2.9660
 1364SOL    HW2 5534   1.695   1.787  11.849 -2.2040  0.9036 -0.8780
 1365SOL     OW 5535   1.049   0.506   9.259  0.0796  0.3020 -0.4978
 1365SOL    HW1 5536   1.021   0.432   9.205 -0.0148  0.4969 -0.7173
 1365SOL    HW2 5537   1.071   0.575   9.196  2.3720 -0.2680 -0.4304
 1366SOL     OW 5538   1.122   7.420  12.318 -0.3207  0.4700 -0.5592
 1366SOL    HW1 5539   1.059   7.490  12.300 -0.6293  0.0071 -1.3505
 1366SOL    HW2 5540   1.161   7.400  12.232 -0.8478 -0.8951 -0.5085
 1367SOL     OW 5541   7.994   7.741  12.353  0.0512  0.0206 -0.0184
 1367SOL    HW1 5542   7.927   7.763  12.288 -0.3778 -0.1352  0.3737
 1367SOL    HW2 5543   8.070   7.715  12.300 -0.1020  0.4671 -0.4647
 1368SOL     OW 5544   1.768   1.423   0.356 -0.1493 -0.2659  0.3177
 1368SOL    HW1 5545   1.761   1.329   0.372  4.2272 -0.8437  0.0901
 1368SOL    HW2 5546   1.793   1.430   0.264  2.5686  0.7258  1.0206
 1369SOL     OW 5547   7.808   1.055  11.508  0.1968  0.0180  0.5886
 1369SOL    HW1 5548   7.761   1.097  11.581 -2.2107  1.8310 -1.8153
 1369SOL    HW2 5549   7.850   1.127  11.462  0.6991 -0.9404 -0.4932
 1370SOL     OW 5550   0.112   6.934  12.117 -0.2840  0.1717  0.6857
 1370SOL    HW1 5551   0.197   6.891  12.117 -0.3106 -0.0458  3.7137
 1370SOL    HW2 5552   0.121   7.008  12.176 -1.5231  1.7487 -0.9640
 1371SOL     OW 5553   0.944   7.502   1.429  0.0673 -0.0089  0.3500
 1371SOL    HW1 5554   0.940   7.576   1.489 -1.0173 -1.1893  1.8048
 1371SOL    HW2 5555   1.025   7.456   1.452 -0.5331 -0.6717  1.2333
 1372SOL     OW 5556   0.022   2.392   1.220  0.3180 -0.3360  0.2851
 1372SOL    HW1 5557   0.040   2.413   1.311  0.4345 -3.3346  1.0403
 1372SOL    HW2 5558  -0.072   2.405   1.210  0.4106  0.6904  0.5708
 1373SOL     OW 5559   0.725   8.000  11.148  0.4335 -0.2436  0.2923
 1373SOL    HW1 5560   0.812   8.020  11.115  0.0708 -0.1355 -0.6385
 1373SOL    HW2 5561   0.688   7.940  11.082  0.0398 -0.7974  1.0016
 1374SOL     OW 5562   7.922   0.854  11.844 -1.0756 -0.4861  0.1523
 1374SOL    HW1 5563   7.989   0.815  11.901 -0.5526  1.1018  0.6584
 1374SOL    HW2 5564   7.971   0.908  11.782 -1.8347  0.1180  0.0601
 1375SOL     OW 5565   7.466   0.478  12.359  0.1723  0.2694  0.0211
 1375SOL    HW1 5566   7.558   0.477  12.385  0.6394  1.8577 -1.4032
 1375SOL    HW2 5567   7.465   0.434  12.274 -0.8509 -2.0888  1.1593
 1376SOL     OW 5568   7.976   0.799   9.548  0.0611  0.3724 -1.2174
 1376SOL    HW1 5569   7.886   0.829   9.532  0.5543  0.5797 -4.3569
 1376SOL    HW2 5570   8.005   0.847   9.625 -1.1853  3.4671 -2.5371
 1377SOL     OW 5571   7.935   1.847   1.215  0.3088 -0.0358  0.4788
 1377SOL    HW1 5572   7.970   1.874   1.130  1.4807 -0.3928  0.8247
 1377SOL    HW2 5573   7.888   1.924   1.248 -0.0599  0.1375 -0.4349
 1378SOL     OW 5574   0.137   0.999  11.676  0.0029 -0.0499 -0.3716
 1378SOL    HW1 5575   0.173   1.043  11.600  1.5970  1.3374  1.1051
 1378SOL    HW2 5576   0.213   0.963  11.721 -0.5770  1.3605  1.8789
 1379SOL     OW 5577   0.838   1.008  11.671 -0.3415 -0.1858  0.4548
 1379SOL    HW1 5578   0.905   1.039  11.731 -1.1890  1.1659  0.7475
 1379SOL    HW2 5579   0.758   1.052  11.699 -0.5764  1.2898 -2.2533
 1380SOL     OW 5580   0.278   0.240  10.669  0.3607 -0.1868 -0.2458
 1380SOL    HW1 5581   0.339   0.267  10.737 -1.0832  0.6962  0.7345
 1380SOL    HW2 5582   0.252   0.321  10.626 -1.4860 -0.3245  0.5411
 1381SOL     OW 5583   0.000   2.056   0.940 -0.4258  0.2102 -0.2051
 1381SOL    HW1 5584  -0.075   2.109   0.914 -0.1500  0.6554 -0.1069
 1381SOL    HW2 5585   0.026   2.011   0.860 -0.2822  0.7028 -0.4381
 1382SOL     OW 5586   0.026   1.090  10.644 -0.4852 -0.1565 -0.2643
 1382SOL    HW1 5587  -0.059   1.128  10.621 -0.2172  0.7481  0.1914
 1382SOL    HW2 5588   0.073   1.083  10.561 -1.1630 -1.0604 -0.5742
 1383SOL     OW 5589   7.800   0.687   0.970  0.0046  0.3196 -0.2235
 1383SOL    HW1 5590   7.752   0.730   1.042  0.5101  0.0084  0.3031
 1383SOL    HW2 5591   7.772   0.596   0.974 -0.4901  0.4326 -0.8678
 1384SOL     OW 5592   7.861   5.639  11.865 -0.1565  0.6824  0.1186
 1384SOL    HW1 5593   7.897   5.714  11.817 -0.7230  1.0515  0.2561
 1384SOL    HW2 5594   7.845   5.673  11.953  0.7656  0.0405  0.5512
 1385SOL     OW 5595   1.038   1.102  11.853  0.5290  0.0274 -0.1480
 1385SOL    HW1 5596   1.098   1.148  11.794 -0.5601  2.2625  0.3628
 1385SOL    HW2 5597   1.074   1.118  11.940  0.4089 -0.5298  0.0024
 1386SOL     OW 5598   1.247   1.029  12.066  0.3477 -0.3702  0.4602
 1386SOL    HW1 5599   1.188   1.102  12.083  0.5919 -0.0826  0.1059
 1386SOL    HW2 5600   1.335   1.066  12.079  0.6574  0.2978 -2.7134
 1387SOL     OW 5601   1.566   0.288  12.017 -0.1483  0.0538  0.1505
 1387SOL    HW1 5602   1.639   0.275  11.957 -0.1388 -0.8818  0.3463
 1387SOL    HW2 5603   1.567   0.382  12.036  0.0443  0.3024 -1.0466
 1388SOL     OW 5604   0.516   0.529  10.236 -0.1818  0.2372  0.0303
 1388SOL    HW1 5605   0.555   0.502  10.153 -0.7520 -0.5022  0.0004
 1388SOL    HW2 5606   0.464   0.606  10.214 -0.1580  0.1729 -0.2491
 1389SOL     OW 5607   1.362   7.160  11.572 -0.7868  0.5921  0.1345
 1389SOL    HW1 5608   1.276   7.152  11.612 -1.0985 -0.0529 -0.6448
 1389SOL    HW2 5609   1.412   7.085  11.607 -1.3137 -0.4547 -1.2634
 1390SOL     OW 5610   2.326   0.416  11.034  0.5141  0.2953  0.1590
 1390SOL    HW1 5611   2.382   0.441  10.960 -0.3172 -0.6301 -0.8184
 1390SOL    HW2 5612   2.364   0.335  11.067  1.2518  1.0235  1.1954
 1391SOL     OW 5613   0.350   7.547  11.948 -1.1397  0.1322 -0.3693
 1391SOL    HW1 5614   0.372   7.457  11.924  0.6699  0.9331 -1.9735
 1391SOL    HW2 5615   0.355   7.596  11.866 -2.1991  1.6974  0.4464
 1392SOL     OW 5616   1.545   6.362   0.341  0.5231  0.4799 -0.2139
 1392SOL    HW1 5617   1.556   6.268   0.333  0.8600  0.4402  0.6428
 1392SOL    HW2 5618   1.511   6.390   0.256 -1.3546 -0.6546  0.1243
 1393SOL     OW 5619   7.251   0.427  11.389  0.3175 -0.5437 -0.3440
 1393SOL    HW1 5620   7.233   0.335  11.408 -0.8229 -0.4152 -0.7486
 1393SOL    HW2 5621   7.270   0.465  11.475  0.5701 -1.1024 -0.1458
 1394SOL     OW 5622   1.552   1.940   0.616 -0.1645 -0.3315 -0.4874
 1394SOL    HW1 5623   1.615   1.970   0.551  1.2596  1.3868  1.5420
 1394SOL    HW2 5624   1.592   1.962   0.700 -0.6415 -4.8309  1.1871
 1395SOL     OW 5625   0.493   6.273   0.561 -0.2670  0.7765 -0.2281
 1395SOL    HW1 5626   0.413   6.230   0.531  0.3385 -2.5167  2.2045
 1395SOL    HW2 5627   0.561   6.242   0.501 -0.1377 -0.3994  0.4735
 1396SOL     OW 5628   1.179   1.117   1.206 -0.2016 -0.1615  0.1026
 1396SOL    HW1 5629   1.185   1.155   1.119 -1.4154 -0.9704 -0.3611
 1396SOL    HW2 5630   1.099   1.065   1.204  0.2695 -0.9883  1.3921
 1397SOL     OW 5631   0.337   2.089  11.434 -0.0466 -0.1834 -0.1723
 1397SOL    HW1 5632   0.287   2.016  11.468 -0.1518  0.1403  0.3799
 1397SOL    HW2 5633   0.307   2.165  11.484  0.6617  0.0940 -0.1460
 1398SOL     OW 5634   1.971   0.655   0.491  0.1335 -0.1793  0.4451
 1398SOL    HW1 5635   1.968   0.628   0.399 -1.2618 -1.4561  0.8130
 1398SOL    HW2 5636   2.004   0.578   0.537  0.1146  0.1896  1.0798
 1399SOL     OW 5637   0.941   7.412  12.069  0.0407  0.6190  0.1314
 1399SOL    HW1 5638   1.004   7.350  12.033 -1.2705 -0.4727 -0.3638
 1399SOL    HW2 5639   0.993   7.490  12.089  1.3826  0.0935 -1.1160
 1400SOL     OW 5640   0.107   0.842  12.323 -0.1666  0.9849 -0.2336
 1400SOL    HW1 5641   0.152   0.819  12.242  0.2802 -0.4318  0.3751
 1400SOL    HW2 5642   0.069   0.928  12.307  2.8836  2.3474 -0.7478
 1401SOL     OW 5643   0.240   0.797  12.068  0.1241  0.3014  0.2947
 1401SOL    HW1 5644   0.229   0.890  12.088  0.6554 -0.1934  3.4312
 1401SOL    HW2 5645   0.334   0.784  12.065  0.0522 -0.0834 -0.5197
 1402SOL     OW 5646   1.507   0.654   2.002 -0.0651 -0.0286  0.5748
 1402SOL    HW1 5647   1.438   0.716   1.980 -0.9967 -1.1711  0.1402
 1402SOL    HW2 5648   1.496   0.583   1.939  1.1172 -0.5268  0.9047
 1403SOL     OW 5649   0.164   1.845  11.388  0.1026  0.0273  0.0136
 1403SOL    HW1 5650   0.171   1.812  11.478 -0.2948 -1.3538 -0.4292
 1403SOL    HW2 5651   0.074   1.879  11.382  0.5422  1.3387  0.4991
 1404SOL     OW 5652   0.937   3.368   0.932  0.2169  0.2493  0.2104
 1404SOL    HW1 5653   1.022   3.336   0.901 -0.4204 -3.4424  1.6853
 1404SOL    HW2 5654   0.880   3.362   0.856  0.3771 -1.3637  0.1833
 1405SOL     OW 5655   7.861   0.459  11.119  0.1373 -0.2355  0.5336
 1405SOL    HW1 5656   7.845   0.484  11.210 -0.2433  1.8893 -0.0683
 1405SOL    HW2 5657   7.811   0.378  11.107 -1.6649  0.6630  1.6068
 1406SOL     OW 5658   1.630   7.567   0.498 -0.0663  0.3208 -0.5171
 1406SOL    HW1 5659   1.709   7.608   0.463 -0.6284  0.4812 -1.6404
 1406SOL    HW2 5660   1.637   7.578   0.593  0.7807  1.1970 -0.6671
 1407SOL     OW 5661   7.763   0.183  12.143 -0.2762  0.0885 -0.0924
 1407SOL    HW1 5662   7.702   0.154  12.210 -2.0000  2.9337 -0.2557
 1407SOL    HW2 5663   7.845   0.199  12.190 -1.3182  1.5794  1.3466
 1408SOL     OW 5664   7.701   7.737  10.274 -0.1078  0.0239  0.2153
 1408SOL    HW1 5665   7.644   7.663  10.296  0.7057 -1.5613 -2.5833
 1408SOL    HW2 5666   7.694   7.746  10.179  1.1060  2.5250  0.2744
 1409SOL     OW 5667   1.510   0.988  10.177  0.2213  0.3694 -0.4598
 1409SOL    HW1 5668   1.436   0.988  10.238  0.7717 -0.6380  0.2372
 1409SOL    HW2 5669   1.490   1.058  10.115 -0.8142  0.7867  0.3195
 1410SOL     OW 5670   2.425   1.882   1.187 -0.3703  0.1672 -0.4088
 1410SOL    HW1 5671   2.397   1.936   1.261  0.6954 -0.2998  0.3594
 1410SOL    HW2 5672   2.410   1.937   1.110 -1.2365  0.7640  0.1713
 1411SOL     OW 5673   0.927   0.294  11.284 -0.0909 -0.1109 -0.5494
 1411SOL    HW1 5674   0.860   0.229  11.306 -0.3831  0.6372  0.9154
 1411SOL    HW2 5675   0.896   0.375  11.325  0.9833  0.5990 -1.1030
 1412SOL     OW 5676   0.633   0.310  11.418 -0.3435  0.4549  0.0932
 1412SOL    HW1 5677   0.633   0.245  11.488  3.2144 -1.2201 -1.2392
 1412SOL    HW2 5678   0.575   0.273  11.351  0.6500 -0.7468 -0.1215
 1413SOL     OW 5679   0.017   3.618  11.327  0.0685 -0.2152 -0.0775
 1413SOL    HW1 5680  -0.060   3.576  11.289  1.1520 -2.2875 -0.1498
 1413SOL    HW2 5681   0.028   3.698  11.276 -2.4350  0.5682  0.4448
 1414SOL     OW 5682   0.857   1.025  12.232  0.5142  0.4341  0.6593
 1414SOL    HW1 5683   0.945   0.986  12.232 -0.1726 -1.2043  1.0556
 1414SOL    HW2 5684   0.865   1.101  12.288  1.4795 -0.2101  1.4379
 1415SOL     OW 5685   7.309   6.692  11.001  0.0323  0.0113  0.0690
 1415SOL    HW1 5686   7.260   6.627  11.051  0.6743 -1.0006 -0.5808
 1415SOL    HW2 5687   7.336   6.757  11.066 -0.2504 -0.5956  0.8109
 1416SOL     OW 5688   1.511   1.397  10.927 -0.2398 -0.3513  0.7821
 1416SOL    HW1 5689   1.585   1.430  10.977  0.0594  2.5273 -1.3071
 1416SOL    HW2 5690   1.434   1.422  10.979  0.1491  0.1059  1.1526
 1417SOL     OW 5691   0.198   0.528   0.504 -0.2049  0.2059 -0.0524
 1417SOL    HW1 5692   0.155   0.521   0.419 -1.0731  0.5685  0.3448
 1417SOL    HW2 5693   0.226   0.620   0.509  0.1865  0.0917 -0.1034
 1418SOL     OW 5694   7.515   0.505  10.977  0.2419  0.3995 -0.1349
 1418SOL    HW1 5695   7.578   0.435  10.960 -1.4025 -0.7674 -1.7455
 1418SOL    HW2 5696   7.455   0.468  11.041 -0.5931  0.3134 -0.9414
 1419SOL     OW 5697   0.990   2.932  12.330 -0.1338 -0.4053 -0.5679
 1419SOL    HW1 5698   0.942   2.919  12.412  0.6333 -1.4666 -0.2793
 1419SOL    HW2 5699   1.070   2.978  12.356  0.6543 -1.7593 -0.5446
 1420SOL     OW 5700   3.110   0.590  12.331  0.3826 -0.3332 -0.1920
 1420SOL    HW1 5701   3.097   0.677  12.369  0.3913  0.0949 -1.1282
 1420SOL    HW2 5702   3.115   0.606  12.236  0.8931 -1.2887 -0.3427
 1421SOL     OW 5703   0.955   0.026  11.465 -0.1068 -0.0220  0.1560
 1421SOL    HW1 5704   0.918  -0.055  11.429 -2.1356 -0.0268  2.0602
 1421SOL    HW2 5705   0.938   0.020  11.559 -2.2346  3.5132  0.1748
 1422SOL     OW 5706   6.916   7.428  12.008  0.2929  0.5817  0.2510
 1422SOL    HW1 5707   6.889   7.504  11.957 -0.9702 -0.5511 -0.8671
 1422SOL    HW2 5708   7.003   7.405  11.974  0.2363  0.9116 -0.1126
 1423SOL     OW 5709   0.665   1.181  11.125 -0.1408 -0.6523  0.5702
 1423SOL    HW1 5710   0.608   1.243  11.172  0.9970  1.2397 -0.4030
 1423SOL    HW2 5711   0.748   1.185  11.173  0.7748  0.6786 -1.0059
 1424SOL     OW 5712   1.544   7.128  10.783 -0.0833 -0.4958 -0.3988
 1424SOL    HW1 5713   1.582   7.188  10.719 -0.2535 -1.0533 -1.0398
 1424SOL    HW2 5714   1.617   7.101  10.838 -0.1032  0.7132  0.2557
 1425SOL     OW 5715   7.904   1.167   1.858  0.7714  0.1184  0.3578
 1425SOL    HW1 5716   7.926   1.077   1.833  0.6541  0.2173 -0.1193
 1425SOL    HW2 5717   7.869   1.160   1.947 -0.1970 -0.4472 -0.0492
 1426SOL     OW 5718   1.071   0.859  11.224 -0.3583  0.2625 -0.5593
 1426SOL    HW1 5719   1.045   0.942  11.184 -1.0529 -0.5696 -1.9291
 1426SOL    HW2 5720   0.994   0.803  11.216 -0.3191 -0.1630  1.4538
 1427SOL     OW 5721   2.652   6.326   0.243 -0.0714 -0.0871 -0.1506
 1427SOL    HW1 5722   2.600   6.260   0.289  0.7310  0.1685  1.1680
 1427SOL    HW2 5723   2.717   6.355   0.307 -0.4760  2.0897 -0.6260
 1428SOL     OW 5724   0.827   0.253  11.845 -0.2576 -0.0848  0.7021
 1428SOL    HW1 5725   0.844   0.229  11.937 -1.8506  0.1619  1.0901
 1428SOL    HW2 5726   0.914   0.271  11.809  0.4558 -0.7209  2.0072
 1429SOL     OW 5727   1.411   7.521  11.818  0.0315 -0.1533 -0.2213
 1429SOL    HW1 5728   1.448   7.449  11.767  1.3595 -0.6009  1.2968
 1429SOL    HW2 5729   1.366   7.478  11.890 -0.8317  0.5048 -0.3600
 1430SOL     OW 5730   0.686   1.525   9.977  0.2411 -0.8137  0.0801
 1430SOL    HW1 5731   0.665   1.557   9.889 -0.2630  0.6586  0.6959
 1430SOL    HW2 5732   0.782   1.532   9.982  0.2763 -0.9540 -0.3781
 1431SOL     OW 5733   0.532   0.798  12.123 -0.0475 -0.4194  0.5015
 1431SOL    HW1 5734   0.618   0.794  12.165 -0.3853 -3.2194  1.1248
 1431SOL    HW2 5735   0.550   0.778  12.031  0.1224  0.7305  0.2672
 1432SOL     OW 5736   0.419   1.700  11.024 -0.5714  0.6506  0.5637
 1432SOL    HW1 5737   0.427   1.756  11.102 -2.3441  2.0392 -0.1764
 1432SOL    HW2 5738   0.346   1.642  11.044 -0.2277  0.1628  0.4080
 1433SOL     OW 5739   3.004   2.308  11.602 -0.0218 -0.1122  0.0382
 1433SOL    HW1 5740   2.915   2.299  11.635  0.5480 -2.3205  1.2060
 1433SOL    HW2 5741   3.005   2.258  11.520 -0.1108  0.8295 -0.5449
 1434SOL     OW 5742   0.843   1.367  12.045 -0.1703  0.2709 -0.3994
 1434SOL    HW1 5743   0.765   1.333  12.087 -0.0007  1.5689  1.0734
 1434SOL    HW2 5744   0.828   1.462  12.040  0.4967  0.3253 -1.8560
 1435SOL     OW 5745   0.244   2.165   2.653 -0.0483  0.5574 -0.5728
 1435SOL    HW1 5746   0.276   2.106   2.721 -1.0700  1.8771  1.1426
 1435SOL    HW2 5747   0.198   2.234   2.700 -2.0342  0.8188 -2.6819
 1436SOL     OW 5748   1.350   1.343   0.498  0.7557  0.0274  0.1758
 1436SOL    HW1 5749   1.441   1.337   0.528  0.6578  1.3829  0.8095
 1436SOL    HW2 5750   1.353   1.313   0.407  1.5624 -1.3797  0.6268
 1437SOL     OW 5751   1.529   5.496  11.204 -0.2047 -0.0483  0.2304
 1437SOL    HW1 5752   1.503   5.586  11.225 -0.4125 -0.1177  0.2686
 1437SOL    HW2 5753   1.572   5.464  11.283  1.3577  0.5736 -0.3223
 1438SOL     OW 5754   0.325   0.349  10.320  0.0548  0.1228 -0.7670
 1438SOL    HW1 5755   0.312   0.304  10.236 -1.9418  1.0133 -0.9855
 1438SOL    HW2 5756   0.387   0.420  10.299  2.0670 -1.5306 -0.7325
 1439SOL     OW 5757   7.955   1.096   0.503 -0.0461  0.5413  0.8296
 1439SOL    HW1 5758   8.025   1.120   0.442 -1.9696 -1.6736 -2.5970
 1439SOL    HW2 5759   7.912   1.179   0.523  0.8857  1.4339 -0.5845
 1440SOL     OW 5760   1.708   7.042  12.104  0.0032 -0.7763  0.0963
 1440SOL    HW1 5761   1.623   7.013  12.137  0.6477 -2.8641  0.0964
 1440SOL    HW2 5762   1.739   7.105  12.169 -0.8169 -1.2638  0.9913
 1441SOL     OW 5763   1.168   6.150   1.636 -0.3569  0.1138  0.5924
 1441SOL    HW1 5764   1.163   6.229   1.582 -1.4292 -0.2862  0.0783
 1441SOL    HW2 5765   1.077   6.124   1.649 -0.0093 -1.2239  0.4704
 1442SOL     OW 5766   0.546   7.769  10.349 -0.1232  0.2507 -0.1394
 1442SOL    HW1 5767   0.591   7.846  10.385 -3.6192  1.6777  1.6499
 1442SOL    HW2 5768   0.550   7.781  10.254 -0.1313  2.3972  0.0834
 1443SOL     OW 5769   0.456   0.721  10.899 -0.2991 -0.3916 -0.1079
 1443SOL    HW1 5770   0.413   0.805  10.916 -1.1252 -0.7654 -0.3239
 1443SOL    HW2 5771   0.531   0.743  10.845  1.0893  0.5558  2.0669
 1444SOL     OW 5772   1.082   0.789  11.489  0.1231  0.2944 -0.4112
 1444SOL    HW1 5773   1.079   0.823  11.399 -0.1676  1.6554  0.0826
 1444SOL    HW2 5774   1.171   0.809  11.519  0.7434 -1.5815 -0.8960
 1445SOL     OW 5775   1.314   0.879  11.090  0.2167  0.4375  0.0708
 1445SOL    HW1 5776   1.236   0.868  11.144  1.1751 -2.8269  1.0433
 1445SOL    HW2 5777   1.379   0.920  11.148  0.2298  0.0282  0.3481
 1446SOL     OW 5778   0.434   2.148  10.234  0.3450 -1.0296 -0.3320
 1446SOL    HW1 5779   0.354   2.189  10.266  0.7683  0.0912 -0.6739
 1446SOL    HW2 5780   0.491   2.143  10.311  0.0183 -1.6990 -0.1206
 1447SOL     OW 5781   0.653   1.987  11.171 -0.0281  0.3337 -0.4915
 1447SOL    HW1 5782   0.637   1.989  11.076 -0.2733 -0.6548 -0.4801
 1447SOL    HW2 5783   0.575   1.945  11.207  0.6330 -0.4854  0.0197
 1448SOL     OW 5784   0.708   0.801  12.366  0.3752  0.1743  0.6136
 1448SOL    HW1 5785   0.716   0.822  12.460  1.2491  0.4835  0.4779
 1448SOL    HW2 5786   0.769   0.861  12.323  1.1463 -1.0248 -0.0182
 1449SOL     OW 5787   0.654   2.441  12.442  0.2048  0.3805  0.3972
 1449SOL    HW1 5788   0.691   2.513  12.391  0.7321  0.9880  1.5868
 1449SOL    HW2 5789   0.692   2.362  12.404 -0.4146  0.6942 -0.9555
 1450SOL     OW 5790   7.235   1.571   1.699  0.1921 -0.0237  0.0595
 1450SOL    HW1 5791   7.310   1.591   1.754 -1.0884  0.5676  1.6939
 1450SOL    HW2 5792   7.178   1.517   1.754 -2.3620  2.7677  0.4237
 1451SOL     OW 5793   1.639   3.104  12.063  0.3163  0.1314 -0.0354
 1451SOL    HW1 5794   1.660   3.017  12.028 -0.1543  0.2426 -0.5972
 1451SOL    HW2 5795   1.722   3.151  12.060 -0.1023  0.8591 -3.0646
 1452SOL     OW 5796   1.413   3.698   1.046 -0.7902  0.3607  0.6264
 1452SOL    HW1 5797   1.335   3.722   1.095 -2.6657 -1.5875 -1.1843
 1452SOL    HW2 5798   1.416   3.603   1.049  1.2341  0.3474  0.1733
 1453SOL     OW 5799   0.795   2.263  11.843 -0.2228 -0.2665 -0.1708
 1453SOL    HW1 5800   0.845   2.182  11.849 -1.2363 -0.8318  1.0251
 1453SOL    HW2 5801   0.816   2.310  11.924 -3.3836 -1.6138  1.6075
 1454SOL     OW 5802   1.105   2.523   1.814  0.1411 -0.0556  0.0449
 1454SOL    HW1 5803   1.051   2.596   1.786 -0.6047 -0.3740  0.6212
 1454SOL    HW2 5804   1.174   2.518   1.748 -0.6599  0.2035 -0.8365
 1455SOL     OW 5805   0.561   1.949   2.766 -0.0336  0.3790  0.0265
 1455SOL    HW1 5806   0.645   1.992   2.748  0.2778  0.1383  0.8650
 1455SOL    HW2 5807   0.531   1.919   2.681  0.5130  0.8671 -0.3495
 1456SOL     OW 5808   0.470   2.353  12.272 -0.2217 -0.0024 -0.1100
 1456SOL    HW1 5809   0.486   2.395  12.187 -0.9796  1.4002  0.4044
 1456SOL    HW2 5810   0.540   2.387  12.328  0.7583 -1.5473 -0.3469
 1457SOL     OW 5811   0.843   2.910   0.060  0.1310 -0.3867 -0.1795
 1457SOL    HW1 5812   0.779   2.842   0.081  1.0954 -0.9677  1.0015
 1457SOL    HW2 5813   0.792   2.978   0.016 -0.9000 -1.7507 -1.1861
 1458SOL     OW 5814   7.798   2.185   0.815  0.2726  0.0336  0.4264
 1458SOL    HW1 5815   7.713   2.228   0.830  0.8734  1.6008 -0.4119
 1458SOL    HW2 5816   7.777   2.111   0.759 -0.3872  1.3797 -1.2134
 1459SOL     OW 5817   2.763   3.981   2.043  0.5240 -0.2464 -0.5589
 1459SOL    HW1 5818   2.734   3.909   1.987 -0.3443 -0.5892  0.3097
 1459SOL    HW2 5819   2.753   4.059   1.989 -1.1645 -0.4608 -0.6134
 1460SOL     OW 5820   0.079   3.188  12.173  0.0088  0.0095  0.6480
 1460SOL    HW1 5821   0.120   3.102  12.164  0.7490  0.2401  1.6357
 1460SOL    HW2 5822  -0.007   3.169  12.212  0.4139 -0.2490  1.4408
 1461SOL     OW 5823   1.813   0.564   1.218 -0.3492 -0.0791  0.5398
 1461SOL    HW1 5824   1.908   0.567   1.214 -0.3129  1.5329  1.8044
 1461SOL    HW2 5825   1.786   0.546   1.128  1.0904  1.8198 -0.3433
 1462SOL     OW 5826   1.102   4.119   1.365 -0.0325 -0.3693  0.1716
 1462SOL    HW1 5827   1.185   4.075   1.347  0.7651  1.5705 -1.2986
 1462SOL    HW2 5828   1.102   4.135   1.459  2.0380  0.9798 -0.0081
 1463SOL     OW 5829   2.767   4.479   0.517  0.3236  0.1768 -0.0665
 1463SOL    HW1 5830   2.769   4.445   0.606 -1.4929 -2.2772 -0.8433
 1463SOL    HW2 5831   2.859   4.483   0.490  0.7861 -2.2781  0.8523
 1464SOL     OW 5832   7.627   2.752   2.020  0.1345  0.1637  0.3790
 1464SOL    HW1 5833   7.644   2.823   2.082 -0.3395 -0.3031  1.0653
 1464SOL    HW2 5834   7.707   2.745   1.967 -0.1340  1.7810 -0.2919
 1465SOL     OW 5835   7.580   2.720   0.685  0.2554 -0.0827  0.4437
 1465SOL    HW1 5836   7.628   2.682   0.759  2.4681  0.2013 -0.7558
 1465SOL    HW2 5837   7.563   2.646   0.627  0.1162 -0.0187  0.4018
 1466SOL     OW 5838   1.620   5.201   2.316  0.7458 -0.3969  0.0889
 1466SOL    HW1 5839   1.661   5.286   2.333 -2.0638  0.9760  0.7830
 1466SOL    HW2 5840   1.663   5.141   2.376  2.2718  0.7093  0.1561
 1467SOL     OW 5841   6.463   1.908   0.819 -1.0662  0.4958  0.1957
 1467SOL    HW1 5842   6.535   1.844   0.828  0.6613  2.2979 -0.0589
 1467SOL    HW2 5843   6.463   1.955   0.902 -0.1797  2.2262 -0.7382
 1468SOL     OW 5844   2.263   1.908   0.434 -0.1230 -0.0822 -0.5209
 1468SOL    HW1 5845   2.200   1.898   0.506 -0.1494 -0.7232 -0.6199
 1468SOL    HW2 5846   2.219   1.868   0.359  0.9602 -1.8855 -0.2583
 1469SOL     OW 5847   7.862   3.226   3.455  0.4400 -0.2096  0.4253
 1469SOL    HW1 5848   7.950   3.189   3.468  0.8536  0.6997  0.3052
 1469SOL    HW2 5849   7.834   3.193   3.370  1.0461  0.2098  0.0538
 1470SOL     OW 5850   1.380   3.309   0.068 -0.0074 -0.3726 -0.0886
 1470SOL    HW1 5851   1.458   3.344   0.111  0.7670 -0.6638 -1.2322
 1470SOL    HW2 5852   1.392   3.214   0.069  0.1375 -0.3772 -1.1354
 1471SOL     OW 5853   5.651   4.309   0.041  0.1394  0.0739 -0.1874
 1471SOL    HW1 5854   5.735   4.348   0.018 -0.0049  0.8713  0.6068
 1471SOL    HW2 5855   5.588   4.381   0.033 -0.6337 -0.6892 -1.5816
 1472SOL     OW 5856   2.052   3.560   0.913  0.2931  0.4374  0.8357
 1472SOL    HW1 5857   2.124   3.555   0.976 -0.4473  0.6672  1.7102
 1472SOL    HW2 5858   2.004   3.478   0.925  1.2736 -0.4344 -0.8386
 1473SOL     OW 5859   1.813   2.468   1.527  0.1087  0.1685 -0.3483
 1473SOL    HW1 5860   1.757   2.454   1.604 -0.9060  1.1800 -0.8828
 1473SOL    HW2 5861   1.848   2.556   1.539  1.2355 -0.2743 -0.2644
 1474SOL     OW 5862   6.919   3.078   2.523 -0.7727 -0.3216 -0.0362
 1474SOL    HW1 5863   6.899   3.150   2.582  0.4386 -0.0341  0.0572
 1474SOL    HW2 5864   6.836   3.058   2.480 -1.2507  0.7471  0.3574
 1475SOL     OW 5865   0.724   2.160   1.408  0.0884 -0.1721  0.1911
 1475SOL    HW1 5866   0.647   2.213   1.390 -1.0086 -1.9910 -0.7633
 1475SOL    HW2 5867   0.797   2.222   1.406 -1.1612  1.3474 -0.4423
 1476SOL     OW 5868   1.865   4.425   0.488  0.3851 -0.2899 -0.4173
 1476SOL    HW1 5869   1.785   4.423   0.436  0.1997 -3.5723 -0.2230
 1476SOL    HW2 5870   1.874   4.517   0.515 -2.5260  0.4510 -1.5861
 1477SOL     OW 5871   0.623   2.993  12.391 -0.9560  0.4205 -0.3689
 1477SOL    HW1 5872   0.596   3.010  12.301 -2.1488 -0.3093 -0.1749
 1477SOL    HW2 5873   0.680   3.067  12.414 -2.0030  1.5035 -1.1669
 1478SOL     OW 5874   6.993   2.248   2.550 -0.3338 -0.1194 -0.4718
 1478SOL    HW1 5875   7.026   2.159   2.556 -0.4967 -0.2073 -0.8424
 1478SOL    HW2 5876   6.907   2.239   2.509 -0.5382  0.1676 -0.1094
 1479SOL     OW 5877   1.081   3.655   0.742  0.2442 -0.0716  0.5501
 1479SOL    HW1 5878   1.058   3.602   0.666 -0.2626 -0.0511  0.6839
 1479SOL    HW2 5879   1.175   3.639   0.755 -0.0180 -1.4116  0.9520
 1480SOL     OW 5880   1.456   1.790   1.282  0.4520  0.3684 -0.2808
 1480SOL    HW1 5881   1.534   1.827   1.322  0.4730 -0.4336  0.4353
 1480SOL    HW2 5882   1.485   1.761   1.195  1.1134 -0.5145  0.2274
 1481SOL     OW 5883   0.429   1.526   1.157 -0.6237  0.7062  0.0613
 1481SOL    HW1 5884   0.407   1.611   1.194  1.6285  1.3212  0.1364
 1481SOL    HW2 5885   0.465   1.545   1.071 -1.3049 -0.2892 -0.4605
 1482SOL     OW 5886   2.501   3.369   0.382 -0.3053  0.3113 -0.1967
 1482SOL    HW1 5887   2.596   3.363   0.387 -0.3881 -1.2582  0.1098
 1482SOL    HW2 5888   2.471   3.342   0.469 -1.0627 -0.8857 -0.8109
 1483SOL     OW 5889   3.006   2.191   2.053  0.5778  0.6044  0.5626
 1483SOL    HW1 5890   2.949   2.133   2.103 -0.9166  0.8798 -0.7362
 1483SOL    HW2 5891   2.996   2.276   2.096  1.9030  0.1858  1.7815
 1484SOL     OW 5892   7.625   2.679   0.239  0.3346  0.4635  0.4254
 1484SOL    HW1 5893   7.610   2.759   0.288 -1.6738  0.0534  0.5596
 1484SOL    HW2 5894   7.656   2.709   0.153 -0.3945  1.3889  0.4688
 1485SOL     OW 5895   0.982   2.169   0.798  0.4603  0.4885 -0.9988
 1485SOL    HW1 5896   1.021   2.256   0.808  0.3411  0.8246 -3.0428
 1485SOL    HW2 5897   0.926   2.176   0.720 -1.7503 -0.6676  0.3813
 1486SOL     OW 5898   2.056   3.159   0.554  0.1233  0.2664  0.0646
 1486SOL    HW1 5899   2.019   3.245   0.572 -1.2163  0.1409 -1.8163
 1486SOL    HW2 5900   2.032   3.106   0.631 -0.5147  1.1219  0.4698
 1487SOL     OW 5901   1.238   1.639   1.317 -0.0931 -0.2711  0.0195
 1487SOL    HW1 5902   1.320   1.688   1.325 -1.5987  2.6132 -0.7997
 1487SOL    HW2 5903   1.222   1.634   1.222 -1.2853 -0.0240  0.1895
 1488SOL     OW 5904   2.059   3.263  12.348 -0.4169 -0.1037 -0.3008
 1488SOL    HW1 5905   2.103   3.216  12.277  0.5571 -1.1411  0.9375
 1488SOL    HW2 5906   1.969   3.229  12.346 -0.4356 -0.0271 -1.1084
 1489SOL     OW 5907   1.427   0.891   1.148 -0.0139 -0.0751  0.2291
 1489SOL    HW1 5908   1.361   0.940   1.197  1.2806  1.8914  0.1121
 1489SOL    HW2 5909   1.482   0.851   1.215  0.1660  0.3741  0.3486
 1490SOL     OW 5910   1.632   5.650   0.379 -0.2688 -0.1300 -0.1832
 1490SOL    HW1 5911   1.690   5.649   0.455  0.8046  1.6532 -0.9136
 1490SOL    HW2 5912   1.589   5.736   0.384 -0.4973 -0.1630 -1.3567
 1491SOL     OW 5913   0.752   2.170   0.604  0.5278  0.4112  0.4839
 1491SOL    HW1 5914   0.671   2.142   0.646  1.0566 -0.5597  0.8861
 1491SOL    HW2 5915   0.758   2.117   0.524 -0.2816  1.9795 -0.6845
 1492SOL     OW 5916   7.101   3.273   0.762 -0.0545  0.5952  0.4001
 1492SOL    HW1 5917   7.054   3.346   0.802  1.0987  1.2658  0.5689
 1492SOL    HW2 5918   7.125   3.217   0.836 -0.5273  0.2672  0.3160
 1493SOL     OW 5919   1.498   1.735   0.345 -0.3085 -0.4696  0.0524
 1493SOL    HW1 5920   1.548   1.676   0.288 -1.0716 -0.9590 -0.1155
 1493SOL    HW2 5921   1.541   1.820   0.334  0.1519 -0.7666 -0.5069
 1494SOL     OW 5922   0.760   0.683   1.722  0.6500 -0.3778  0.3518
 1494SOL    HW1 5923   0.718   0.767   1.705  2.0486  0.5105  1.0637
 1494SOL    HW2 5924   0.787   0.651   1.636 -0.0446 -0.1977  0.0626
 1495SOL     OW 5925   1.188   3.080  12.410  0.0725 -0.9678  0.5438
 1495SOL    HW1 5926   1.207   3.158  12.358 -0.8406  0.3786  2.1495
 1495SOL    HW2 5927   1.264   3.070  12.468 -1.2146  0.7994  2.6874
 1496SOL     OW 5928   0.221   3.689   0.883 -0.4422  0.1865 -0.0947
 1496SOL    HW1 5929   0.304   3.714   0.923 -0.9931  1.9885  0.0084
 1496SOL    HW2 5930   0.228   3.594   0.871  1.1658  0.1317  0.9385
 1497SOL     OW 5931   1.439   4.022  11.949  0.0871  0.4764 -0.1298
 1497SOL    HW1 5932   1.462   4.115  11.961 -1.4640  0.9736 -0.7259
 1497SOL    HW2 5933   1.411   4.016  11.858  1.8103 -0.9904 -0.6068
 1498SOL     OW 5934   6.614   1.022   1.597  0.3017 -0.2085 -0.4435
 1498SOL    HW1 5935   6.561   0.957   1.551 -0.4166  0.2773 -0.3206
 1498SOL    HW2 5936   6.644   0.977   1.676  1.1038 -0.8792 -1.1199
 1499SOL     OW 5937   2.172   2.514   0.234 -0.4633  0.1367 -0.0015
 1499SOL    HW1 5938   2.161   2.540   0.326  0.0443  1.7870 -0.3747
 1499SOL    HW2 5939   2.139   2.589   0.184  1.6236  0.3501 -1.1557
 1500SOL     OW 5940   2.598   4.176   0.923 -0.7026 -0.3464  0.4022
 1500SOL    HW1 5941   2.629   4.148   1.009 -1.2867  0.5395  0.9235
 1500SOL    HW2 5942   2.598   4.272   0.927 -2.4918 -0.2839  0.0821
 1501SOL     OW 5943   0.920   2.871   0.561  0.1888 -0.1614 -0.0610
 1501SOL    HW1 5944   0.960   2.843   0.479 -0.2346 -0.9467 -0.0166
 1501SOL    HW2 5945   0.941   2.800   0.623 -1.1153 -0.5267 -0.0024
 1502SOL     OW 5946   1.588   2.219  11.761 -0.0752  0.1004 -0.1602
 1502SOL    HW1 5947   1.676   2.254  11.772 -0.8177  1.3937  2.4777
 1502SOL    HW2 5948   1.544   2.282  11.704  0.7484 -0.7752 -1.8470
 1503SOL     OW 5949   7.555   4.290   2.097  0.4554  0.0013  1.1076
 1503SOL    HW1 5950   7.586   4.379   2.110 -1.2313  1.2225 -2.0518
 1503SOL    HW2 5951   7.480   4.282   2.156 -0.1665  1.2066  0.5207
 1504SOL     OW 5952   1.939   3.589   0.658  0.7833  0.4148 -0.2822
 1504SOL    HW1 5953   2.012   3.543   0.618 -0.2149 -1.0126 -0.5468
 1504SOL    HW2 5954   1.965   3.601   0.749  2.1826  1.7947 -0.8287
 1505SOL     OW 5955   0.561   3.993   1.060  0.6068 -0.4454  0.6020
 1505SOL    HW1 5956   0.560   3.945   1.142  0.7825 -3.1583 -0.8779
 1505SOL    HW2 5957   0.653   4.017   1.048  0.5112  0.3819  1.3587
 1506SOL     OW 5958   0.488   1.651   1.504 -0.0837 -0.3367  0.2523
 1506SOL    HW1 5959   0.515   1.632   1.594  0.7991 -0.8628 -0.1127
 1506SOL    HW2 5960   0.408   1.600   1.492  1.0461 -2.1631  0.0092
 1507SOL     OW 5961   0.810   1.482   0.760  0.3195  0.5514 -0.1051
 1507SOL    HW1 5962   0.721   1.507   0.786 -0.3518  0.1954 -1.8933
 1507SOL    HW2 5963   0.832   1.544   0.690  1.6959  0.9396  0.6442
 1508SOL     OW 5964   1.434   3.801   0.484  0.2661  0.5906 -0.1047
 1508SOL    HW1 5965   1.487   3.812   0.563  1.2339  0.2629 -0.6918
 1508SOL    HW2 5966   1.343   3.800   0.515  0.6970 -2.0432  1.3046
 1509SOL     OW 5967   0.742   2.360   1.734 -1.0846  0.2304 -0.3061
 1509SOL    HW1 5968   0.758   2.385   1.643  0.4999 -0.5221 -0.2713
 1509SOL    HW2 5969   0.653   2.325   1.734 -0.2876 -2.0870 -2.1431
 1510SOL     OW 5970   0.268   2.131   1.476  0.1332  0.0927 -0.5864
 1510SOL    HW1 5971   0.303   2.110   1.390 -0.7721 -1.8271 -0.5456
 1510SOL    HW2 5972   0.178   2.159   1.459  0.7216  2.2416 -0.4455
 1511SOL     OW 5973   0.267   1.172   0.914 -0.2165 -0.3697 -0.0269
 1511SOL    HW1 5974   0.200   1.120   0.872 -1.4406  0.5730  0.6962
 1511SOL    HW2 5975   0.318   1.109   0.965 -0.4898 -1.0986 -0.6377
 1512SOL     OW 5976   0.919   4.537   0.423 -0.5973 -0.5417 -0.3369
 1512SOL    HW1 5977   0.855   4.526   0.493  0.6446 -0.8855  0.7895
 1512SOL    HW2 5978   0.999   4.497   0.457  0.4819  0.6620 -1.3260
 1513SOL     OW 5979   0.999   1.365   2.422 -0.1896  0.0802  0.2365
 1513SOL    HW1 5980   0.977   1.399   2.509  1.3811  1.3179  0.1918
 1513SOL    HW2 5981   1.091   1.337   2.430 -0.7862 -2.2390 -0.3365
 1514SOL     OW 5982   0.321   2.184   0.434  0.0825 -0.0143 -0.0816
 1514SOL    HW1 5983   0.340   2.268   0.477 -0.0310  0.0484 -0.1533
 1514SOL    HW2 5984   0.241   2.154   0.476 -0.2288  0.2221 -0.4987
 1515SOL     OW 5985   2.649   1.528   0.748  0.0037  0.0430 -0.5230
 1515SOL    HW1 5986   2.558   1.509   0.726 -0.3709  0.9850  0.0921
 1515SOL    HW2 5987   2.646   1.556   0.840  1.0451 -0.7576 -0.2223
 1516SOL     OW 5988   3.717   5.251   2.766  0.5006  0.2215  0.1234
 1516SOL    HW1 5989   3.623   5.253   2.748  0.2534 -2.3538  0.6743
 1516SOL    HW2 5990   3.730   5.317   2.833 -1.3179 -0.6632  1.4395
 1517SOL     OW 5991   6.984   2.283   1.194 -0.8002 -0.4395 -0.1785
 1517SOL    HW1 5992   6.897   2.267   1.157 -0.8439 -1.1582  0.2234
 1517SOL    HW2 5993   7.042   2.226   1.145 -0.7154 -0.7082  0.2329
 1518SOL     OW 5994   0.507   1.892   2.517  0.1696 -1.0395 -0.0288
 1518SOL    HW1 5995   0.551   1.839   2.450  0.9977 -1.5972  0.9358
 1518SOL    HW2 5996   0.435   1.838   2.547  0.0078 -0.9302 -0.2160
 1519SOL     OW 5997   2.438   3.444   1.246 -0.8351  0.7322 -0.1890
 1519SOL    HW1 5998   2.481   3.524   1.277 -2.3061  0.7932  1.9544
 1519SOL    HW2 5999   2.349   3.473   1.223 -0.3335  0.3391 -3.0489
 1520SOL     OW 6000   1.600   4.435   0.401  0.2438  0.3110  0.2641
 1520SOL    HW1 6001   1.538   4.393   0.460 -0.8307 -0.6250 -1.4630
 1520SOL    HW2 6002   1.609   4.524   0.435 -2.8449  0.8200  0.0323
 1521SOL     OW 6003   0.331   2.752  11.058  0.8301 -0.6753 -0.2432
 1521SOL    HW1 6004   0.320   2.771  11.151  0.9657 -0.5645 -0.2498
 1521SOL    HW2 6005   0.243   2.764  11.020  1.2527  1.9218 -0.6108
 1522SOL     OW 6006   7.743   3.529  11.468 -0.0301  0.0884  0.2127
 1522SOL    HW1 6007   7.775   3.518  11.379 -1.1672  0.4866 -0.2669
 1522SOL    HW2 6008   7.789   3.461  11.519  0.8501  0.0594 -0.6028
 1523SOL     OW 6009   7.847   3.318  12.272 -0.7316  0.2689  1.0774
 1523SOL    HW1 6010   7.857   3.372  12.194 -0.3601 -0.9812  0.2323
 1523SOL    HW2 6011   7.904   3.359  12.337  0.5818  0.1708  0.0446
 1524SOL     OW 6012   0.973   3.561   1.402  0.0401  0.5256 -0.3016
 1524SOL    HW1 6013   0.900   3.620   1.418 -0.1797  0.2925 -0.4428
 1524SOL    HW2 6014   0.948   3.513   1.323  0.0872  0.0375 -0.0187
 1525SOL     OW 6015   1.081   3.848  11.244  0.3573 -0.3082  0.3270
 1525SOL    HW1 6016   1.024   3.794  11.189  0.0590  0.3155  0.0091
 1525SOL    HW2 6017   1.020   3.903  11.294  0.6404 -0.5863  0.9846
 1526SOL     OW 6018   0.609   0.119   1.866  0.0885 -0.1817  0.2848
 1526SOL    HW1 6019   0.662   0.180   1.814 -0.6928  0.0116 -0.3153
 1526SOL    HW2 6020   0.601   0.041   1.811  0.2706 -0.4574  0.6423
 1527SOL     OW 6021   1.084   3.850   0.255 -0.2024 -0.0842 -0.5567
 1527SOL    HW1 6022   1.118   3.934   0.226  0.0075 -0.1088 -0.3837
 1527SOL    HW2 6023   0.990   3.854   0.236 -0.3903  0.6096  0.4268
 1528SOL     OW 6024   6.334   2.251   0.770 -0.1877 -0.4256  0.3633
 1528SOL    HW1 6025   6.355   2.185   0.836 -1.7602 -2.0269 -0.6498
 1528SOL    HW2 6026   6.239   2.262   0.778 -0.0487  1.2323  0.0295
 1529SOL     OW 6027   1.929   0.505   1.736  0.1970  0.6781 -0.6409
 1529SOL    HW1 6028   1.905   0.414   1.721 -1.3482  0.7859  0.9238
 1529SOL    HW2 6029   1.951   0.509   1.829 -3.5386  2.5990  0.3611
 1530SOL     OW 6030   0.155   2.177   0.153 -0.1086  0.2409  0.1913
 1530SOL    HW1 6031   0.151   2.146   0.063 -0.0317 -0.2172  0.3465
 1530SOL    HW2 6032   0.240   2.148   0.186 -0.4172 -0.1860  0.6270
 1531SOL     OW 6033   7.802   1.076   2.112  0.0176  0.0122  0.2284
 1531SOL    HW1 6034   7.737   1.016   2.073  0.1601 -0.8681  1.2843
 1531SOL    HW2 6035   7.749   1.139   2.161 -0.1017  0.3532 -0.3242
 1532SOL     OW 6036   2.494   4.124   2.870  0.8015 -0.3071 -1.0378
 1532SOL    HW1 6037   2.480   4.031   2.855  1.4260 -0.6874  0.5438
 1532SOL    HW2 6038   2.579   4.129   2.914  0.8873  1.0318 -1.3005
 1533SOL     OW 6039   0.120   3.916   0.015  0.2008  0.6092 -0.4939
 1533SOL    HW1 6040   0.043   3.961   0.051 -0.2230  0.2877 -0.9831
 1533SOL    HW2 6041   0.118   3.938  -0.079  0.9326  0.9209 -0.4412
 1534SOL     OW 6042   0.852   3.961   0.476  0.7204  0.2165 -0.2570
 1534SOL    HW1 6043   0.839   3.927   0.387  0.5648 -1.1922  0.2680
 1534SOL    HW2 6044   0.937   4.006   0.472  1.2627 -0.8000 -0.8693
 1535SOL     OW 6045   3.911   1.564  12.470 -0.0015  0.0411 -0.0339
 1535SOL    HW1 6046   3.864   1.628  12.416  0.9288 -0.6568 -1.7454
 1535SOL    HW2 6047   3.874   1.479  12.446  1.0429 -0.3696 -0.2883
 1536SOL     OW 6048   7.619   1.983   2.921 -0.3816 -0.0489 -0.2506
 1536SOL    HW1 6049   7.607   1.901   2.874  0.4186  0.4995 -1.4653
 1536SOL    HW2 6050   7.709   1.980   2.954 -0.2694  0.4249 -0.4982
 1537SOL     OW 6051   1.168   4.216   0.977  0.1321 -0.2846  0.1532
 1537SOL    HW1 6052   1.213   4.203   0.893 -1.8875 -0.9964 -0.8864
 1537SOL    HW2 6053   1.142   4.128   1.003  2.4854 -0.3683  2.6611
 1538SOL     OW 6054   2.019   3.708   1.537  0.4361  0.0549  0.0603
 1538SOL    HW1 6055   2.002   3.761   1.459  0.3515 -0.1950 -0.0895
 1538SOL    HW2 6056   1.997   3.766   1.610  0.5298  0.2935 -0.0991
 1539SOL     OW 6057   0.123   2.196   2.276 -0.0331 -0.6505  0.2951
 1539SOL    HW1 6058   0.205   2.153   2.254 -0.9657 -2.4841  0.2688
 1539SOL    HW2 6059   0.126   2.206   2.372 -0.2802 -1.7835  0.4256
 1540SOL     OW 6060   1.249   2.431   3.098 -0.1247  0.5148  0.1226
 1540SOL    HW1 6061   1.325   2.468   3.053 -0.2250 -1.6864 -2.0692
 1540SOL    HW2 6062   1.191   2.506   3.113  1.7807  2.0010  0.4869
 1541SOL     OW 6063   0.765   3.228  11.036  0.1650  0.1260 -0.5281
 1541SOL    HW1 6064   0.805   3.259  10.954 -0.9655 -1.6507 -1.8215
 1541SOL    HW2 6065   0.671   3.233  11.020 -0.2245  2.2337  1.6940
 1542SOL     OW 6066   0.289   2.739   0.055 -0.3654  0.5274 -0.0670
 1542SOL    HW1 6067   0.294   2.656   0.007  2.3758 -0.2548  1.3550
 1542SOL    HW2 6068   0.378   2.774   0.051 -0.1439  0.7603  3.6902
 1543SOL     OW 6069   1.117   3.856   2.458  0.3559  0.6688  1.1286
 1543SOL    HW1 6070   1.196   3.808   2.485  0.7659  0.6949  0.0267
 1543SOL    HW2 6071   1.079   3.802   2.388  0.7929  1.8827 -0.0851
 1544SOL     OW 6072   0.500   3.161   1.249 -0.1061 -0.3571 -0.3542
 1544SOL    HW1 6073   0.528   3.241   1.203 -2.1473  0.3756 -0.4233
 1544SOL    HW2 6074   0.460   3.108   1.180 -0.3872 -0.6296  0.0214
 1545SOL     OW 6075   0.724   3.182   4.421  1.0232 -0.5281 -0.3083
 1545SOL    HW1 6076   0.642   3.172   4.372  2.4466 -1.0135 -2.7307
 1545SOL    HW2 6077   0.719   3.270   4.458 -0.0129 -0.0129 -1.5966
 1546SOL     OW 6078   0.736   1.989   1.062  0.3588 -0.3470  0.0962
 1546SOL    HW1 6079   0.731   1.942   0.979  3.2891  0.2210 -0.4981
 1546SOL    HW2 6080   0.722   2.081   1.039  2.2226 -0.0540  0.0066
 1547SOL     OW 6081   0.751   4.317   0.554  0.1104 -0.1762  0.1203
 1547SOL    HW1 6082   0.699   4.328   0.474 -1.4220 -2.9921  0.5887
 1547SOL    HW2 6083   0.816   4.251   0.531  1.4678  1.0055  0.4645
 1548SOL     OW 6084   0.647   1.427   1.455 -0.1422  0.2924  0.1093
 1548SOL    HW1 6085   0.664   1.372   1.378 -0.7919 -0.9898  0.8327
 1548SOL    HW2 6086   0.621   1.512   1.419  1.1398  0.2208 -1.0473
 1549SOL     OW 6087   0.663   0.920   1.615  0.0932  0.3019  0.4171
 1549SOL    HW1 6088   0.715   0.999   1.620  1.0571 -0.3390  0.8396
 1549SOL    HW2 6089   0.613   0.928   1.533 -0.6686  1.8236  1.0046
 1550SOL     OW 6090   7.511   3.659   0.361  0.4312 -0.5690 -0.7689
 1550SOL    HW1 6091   7.481   3.687   0.274 -0.6088  0.6316 -0.0604
 1550SOL    HW2 6092   7.455   3.708   0.422  2.0423 -0.3517  0.5943
 1551SOL     OW 6093   0.934   2.839   2.292  0.3562  0.0081 -0.0706
 1551SOL    HW1 6094   0.949   2.757   2.244  0.4205  0.7812 -1.3946
 1551SOL    HW2 6095   0.946   2.814   2.384 -0.4507 -1.6518 -0.3739
 1552SOL     OW 6096   2.892   2.113   1.239  0.2984 -0.1006  0.1831
 1552SOL    HW1 6097   2.920   2.203   1.256 -0.4420  0.3574 -0.9306
 1552SOL    HW2 6098   2.821   2.098   1.302 -0.6184  0.6490 -0.6409
 1553SOL     OW 6099   7.934   4.021   0.696  0.7120  0.2033  0.2098
 1553SOL    HW1 6100   7.987   4.072   0.757  0.9813  0.5296 -0.2919
 1553SOL    HW2 6101   7.848   4.015   0.738  0.2635  2.2126 -0.2894
 1554SOL     OW 6102   7.890   1.291   2.365 -0.3463 -0.4625 -0.1286
 1554SOL    HW1 6103   7.959   1.357   2.371  0.5993 -1.5371  1.4645
 1554SOL    HW2 6104   7.818   1.336   2.321  0.9894  0.9983 -0.9019
 1555SOL     OW 6105   2.079   2.578   0.858  0.1937 -0.0409  0.8501
 1555SOL    HW1 6106   2.122   2.502   0.896 -0.4338 -0.4796  0.6879
 1555SOL    HW2 6107   2.146   2.619   0.803  1.0179  0.4205  2.1627
 1556SOL     OW 6108   1.866   7.637   0.344 -0.0232 -0.4885  0.0007
 1556SOL    HW1 6109   1.931   7.658   0.276 -0.8982  1.0538 -0.4083
 1556SOL    HW2 6110   1.786   7.617   0.295 -0.3699 -0.4562  0.5527
 1557SOL     OW 6111   7.614   1.473   1.294  0.1417  0.4303  0.3347
 1557SOL    HW1 6112   7.684   1.496   1.356  0.7151  1.0533 -0.5207
 1557SOL    HW2 6113   7.533   1.485   1.344  0.4342  3.4710  0.2912
 1558SOL     OW 6114   0.367   2.171   1.234 -0.2534 -0.5079 -0.3825
 1558SOL    HW1 6115   0.433   2.129   1.180  1.9034  0.7558  1.1232
 1558SOL    HW2 6116   0.287   2.167   1.182  1.0280 -1.8841 -2.3786
 1559SOL     OW 6117   1.415   2.692   0.708 -0.3515  0.5163  0.2191
 1559SOL    HW1 6118   1.330   2.715   0.672 -0.2232 -0.9759 -1.1671
 1559SOL    HW2 6119   1.469   2.674   0.632  0.8825  0.3529  1.1069
 1560SOL     OW 6120   0.920   2.712   0.950 -0.3521 -0.2520  0.1756
 1560SOL    HW1 6121   0.946   2.719   0.858  1.0812  0.4426  0.6072
 1560SOL    HW2 6122   0.864   2.788   0.965  0.5342  0.4075  0.2151
 1561SOL     OW 6123   7.186   2.543   2.082  0.1331  0.2394  0.5454
 1561SOL    HW1 6124   7.204   2.635   2.100  0.7247  0.5648 -1.4552
 1561SOL    HW2 6125   7.262   2.496   2.117  1.3637  0.8658 -1.1409
 1562SOL     OW 6126   0.351   2.703   0.641  0.2538 -0.1754  0.9619
 1562SOL    HW1 6127   0.421   2.767   0.647 -0.6535  0.8011  1.5122
 1562SOL    HW2 6128   0.278   2.743   0.687 -0.6626 -1.1774  0.4354
 1563SOL     OW 6129   7.495   3.580  11.613 -0.2831  0.2255 -0.4960
 1563SOL    HW1 6130   7.497   3.636  11.536 -1.3197 -1.9000 -2.1746
 1563SOL    HW2 6131   7.580   3.534  11.611  0.5874  1.6639  0.9022
 1564SOL     OW 6132   1.055   2.658   3.085 -0.0631 -0.0528  0.1252
 1564SOL    HW1 6133   1.073   2.663   3.179 -1.3592  1.0183  0.3395
 1564SOL    HW2 6134   1.111   2.725   3.046 -0.4789  0.3975  0.2951
 1565SOL     OW 6135   7.935   2.945   0.496 -0.4960 -0.3345 -0.1249
 1565SOL    HW1 6136   8.017   2.958   0.543 -0.4396 -0.1895 -0.2633
 1565SOL    HW2 6137   7.900   2.864   0.532 -0.6918  0.0250  0.5254
 1566SOL     OW 6138   2.332   2.808   0.372 -0.1898 -0.0324  0.4410
 1566SOL    HW1 6139   2.283   2.871   0.318  0.6390 -0.6149 -1.0563
 1566SOL    HW2 6140   2.266   2.748   0.406 -0.8350  0.8713  0.8346
 1567SOL     OW 6141   1.119   2.415   0.859  0.4330  0.7782  0.1366
 1567SOL    HW1 6142   1.156   2.459   0.935  0.2469  0.5027  0.3867
 1567SOL    HW2 6143   1.072   2.484   0.812  2.2010  1.4045 -0.8085
 1568SOL     OW 6144   1.632   1.375   1.381 -0.0817 -0.1900 -0.5935
 1568SOL    HW1 6145   1.712   1.418   1.414  0.4099 -1.2729 -0.3527
 1568SOL    HW2 6146   1.561   1.420   1.427  0.5025 -0.5697  0.7367
 1569SOL     OW 6147   0.915   4.030   2.005  0.0846 -0.0375  0.4022
 1569SOL    HW1 6148   1.003   3.995   2.021  0.7947  1.3232 -0.3348
 1569SOL    HW2 6149   0.906   4.100   2.069  0.3387  1.1111 -0.7753
 1570SOL     OW 6150   6.790   1.736   1.551  0.0673 -0.2188  0.0484
 1570SOL    HW1 6151   6.871   1.745   1.500  0.2110 -0.5202  0.2187
 1570SOL    HW2 6152   6.741   1.816   1.532  0.7231  0.3067  0.5126
 1571SOL     OW 6153   3.205   0.746  11.685  0.1255  0.3258 -0.0783
 1571SOL    HW1 6154   3.192   0.777  11.595 -0.8116 -0.1255 -0.1143
 1571SOL    HW2 6155   3.189   0.823  11.739  1.2464  0.7369 -0.3175
 1572SOL     OW 6156   0.062   3.716  12.306 -0.1219 -0.0949 -0.3617
 1572SOL    HW1 6157  -0.018   3.766  12.288  0.6566  0.6110 -2.1369
 1572SOL    HW2 6158   0.101   3.758  12.382 -1.2351 -0.1957  0.2770
 1573SOL     OW 6159   0.652   2.962   0.348 -0.1625 -0.1657 -0.0747
 1573SOL    HW1 6160   0.723   3.015   0.385 -1.7818  2.0620  0.0829
 1573SOL    HW2 6161   0.595   2.944   0.423 -0.1146 -1.3568 -0.3148
 1574SOL     OW 6162   0.452   2.934   2.191  0.4567  0.3277  0.0233
 1574SOL    HW1 6163   0.423   2.843   2.199  1.1447  0.1287  0.3414
 1574SOL    HW2 6164   0.514   2.946   2.263  1.3092  0.6812 -0.7630
 1575SOL     OW 6165   0.630   1.085   0.488  0.2223 -0.0052  0.2721
 1575SOL    HW1 6166   0.568   1.047   0.551 -0.3687  0.5807  0.0457
 1575SOL    HW2 6167   0.577   1.103   0.410  1.2433 -2.2597 -1.0505
 1576SOL     OW 6168   1.359   1.952   0.951  0.0918 -0.2305  0.0228
 1576SOL    HW1 6169   1.293   1.887   0.975  0.3474 -0.7515 -0.6391
 1576SOL    HW2 6170   1.309   2.031   0.934 -0.2828 -0.4057  0.2953
 1577SOL     OW 6171   2.264   4.010   0.377  0.2920 -0.3791 -0.2173
 1577SOL    HW1 6172   2.303   3.992   0.463  1.4449 -0.9119 -0.8269
 1577SOL    HW2 6173   2.220   3.929   0.353  2.6307 -1.3851 -1.4707
 1578SOL     OW 6174   0.416   3.810   1.659 -0.7195  0.0856 -0.1252
 1578SOL    HW1 6175   0.323   3.787   1.661 -0.4073 -1.3486 -1.0800
 1578SOL    HW2 6176   0.461   3.727   1.676  0.4013  0.5725 -0.6610
 1579SOL     OW 6177   0.903   4.323   1.295 -0.1033  0.5916 -0.0629
 1579SOL    HW1 6178   0.916   4.331   1.200  0.5002  0.1709 -0.0188
 1579SOL    HW2 6179   0.963   4.253   1.321 -2.1427 -1.1374  0.2294
 1580SOL     OW 6180   0.792   2.954   2.076  0.0649 -0.4344 -0.0769
 1580SOL    HW1 6181   0.848   2.906   2.136  1.4457  1.5573  0.3190
 1580SOL    HW2 6182   0.712   2.902   2.071  1.8579 -3.3359 -0.6197
 1581SOL     OW 6183   0.718   1.852   0.831  0.1636 -0.0517  0.3286
 1581SOL    HW1 6184   0.651   1.783   0.842  2.0028 -1.5052  3.8512
 1581SOL    HW2 6185   0.755   1.835   0.744 -2.3234 -0.7217 -0.6897
 1582SOL     OW 6186   6.356   2.274   2.615 -0.6239 -0.7291  0.3009
 1582SOL    HW1 6187   6.365   2.213   2.688 -2.6951 -0.5216  0.8121
 1582SOL    HW2 6188   6.442   2.315   2.607 -0.3854 -0.5917  2.8058
 1583SOL     OW 6189   1.046   2.279   2.272 -0.0456 -0.3618  0.0601
 1583SOL    HW1 6190   1.130   2.234   2.280  0.3554  0.4349  0.5411
 1583SOL    HW2 6191   1.061   2.363   2.315 -0.4907  0.5939 -1.5585
 1584SOL     OW 6192   1.689   3.151   0.152 -0.0299  0.7623 -0.5551
 1584SOL    HW1 6193   1.664   3.074   0.100  1.0530  1.2393 -1.8483
 1584SOL    HW2 6194   1.777   3.131   0.182 -1.1789 -0.1897  2.5470
 1585SOL     OW 6195   0.147   2.971  12.454  0.5484  0.2696  0.1538
 1585SOL    HW1 6196   0.192   2.886  12.453  0.7622  0.3824  0.1487
 1585SOL    HW2 6197   0.212   3.033  12.422  0.8250  0.6545  1.3965
 1586SOL     OW 6198   0.568   2.807   1.110  0.4521 -0.0906  0.0414
 1586SOL    HW1 6199   0.601   2.732   1.060 -0.1361 -2.6131  3.1356
 1586SOL    HW2 6200   0.529   2.768   1.189 -0.0676  3.4897  1.7319
 1587SOL     OW 6201   6.908   3.777   0.424 -0.1345  0.1936  0.1400
 1587SOL    HW1 6202   6.990   3.728   0.427  1.0018  1.9022 -0.8131
 1587SOL    HW2 6203   6.930   3.856   0.374 -2.3120  0.8215  0.0791
 1588SOL     OW 6204   1.872   2.660   0.500  0.0941  0.2490 -0.4457
 1588SOL    HW1 6205   1.876   2.698   0.588  2.1282  1.1581 -0.8920
 1588SOL    HW2 6206   1.794   2.604   0.502  0.5138 -0.3715  2.1886
 1589SOL     OW 6207   0.746   3.717   1.383  0.0936 -0.6601  0.1866
 1589SOL    HW1 6208   0.755   3.762   1.467 -0.0897 -0.0779 -0.0996
 1589SOL    HW2 6209   0.655   3.734   1.357 -0.0224 -1.3151  0.1337
 1590SOL     OW 6210   1.729   1.936   0.398 -0.4958 -0.2313 -0.1312
 1590SOL    HW1 6211   1.749   1.909   0.308  0.1154 -0.6214  0.1152
 1590SOL    HW2 6212   1.766   1.867   0.453 -0.4235  0.2517  0.4456
 1591SOL     OW 6213   0.215   4.413   2.251  0.1974  0.1987  0.2921
 1591SOL    HW1 6214   0.278   4.478   2.221 -1.3348  2.1050  1.0123
 1591SOL    HW2 6215   0.147   4.411   2.183 -0.3078  0.1582  0.7857
 1592SOL     OW 6216   1.394   1.189   1.373 -0.2696  0.0627 -0.7103
 1592SOL    HW1 6217   1.325   1.184   1.307 -0.3504  0.0274 -0.6240
 1592SOL    HW2 6218   1.469   1.227   1.327 -0.0547 -0.7369 -1.0456
 1593SOL     OW 6219   1.457   2.681   0.418 -0.3597  0.7293 -0.1474
 1593SOL    HW1 6220   1.529   2.618   0.428 -0.4126  0.7275  0.2222
 1593SOL    HW2 6221   1.394   2.636   0.363 -0.9172  0.0045  1.0455
 1594SOL     OW 6222   3.888   5.776   2.511 -0.6063  0.2517  0.3841
 1594SOL    HW1 6223   3.877   5.805   2.421 -0.4060  0.9673  0.5800
 1594SOL    HW2 6224   3.960   5.712   2.507 -0.6330  0.2431  0.0312
 1595SOL     OW 6225   1.218   2.712   0.233  0.3287 -0.3452  0.2083
 1595SOL    HW1 6226   1.173   2.649   0.177  0.7143 -0.6282  0.2070
 1595SOL    HW2 6227   1.295   2.738   0.183  0.5812 -0.4645  0.5309
 1596SOL     OW 6228   0.516   2.345   1.404  0.2903  0.0663  0.0850
 1596SOL    HW1 6229   0.471   2.349   1.488 -0.9020 -0.6602 -0.4907
 1596SOL    HW2 6230   0.452   2.307   1.344  1.3630 -0.1113 -0.9952
 1597SOL     OW 6231   1.395   4.888   0.962  0.0641 -0.0915  0.0539
 1597SOL    HW1 6232   1.401   4.977   0.926  0.0610 -0.1696 -0.1418
 1597SOL    HW2 6233   1.486   4.857   0.966  0.2363  0.5267  1.6770
 1598SOL     OW 6234   1.100   2.619  12.344 -0.5205 -0.5347  0.7198
 1598SOL    HW1 6235   1.169   2.626  12.278  1.1647 -0.4909  2.4034
 1598SOL    HW2 6236   1.053   2.702  12.339  0.6092  0.1203  0.6282
 1599SOL     OW 6237   0.464   1.968   1.081 -0.1427 -0.2983 -0.4547
 1599SOL    HW1 6238   0.558   1.950   1.090 -0.0458  0.0208 -0.7743
 1599SOL    HW2 6239   0.423   1.921   1.154  0.4270  0.8182  0.6383
 1600SOL     OW 6240   1.557   2.946   0.410 -0.2496 -0.8447 -0.1542
 1600SOL    HW1 6241   1.508   2.864   0.407  0.2131 -1.1414  0.1933
 1600SOL    HW2 6242   1.529   2.994   0.332 -2.4206 -0.2192  0.9593
 1601SOL     OW 6243   2.931   4.865  12.178 -0.4922  0.4381 -0.7515
 1601SOL    HW1 6244   2.969   4.813  12.107  0.1476 -0.3656  0.1535
 1601SOL    HW2 6245   2.990   4.940  12.186  0.0064  0.0269 -0.4396
 1602SOL     OW 6246   0.108   2.492   1.459 -0.1580  0.2583 -0.1779
 1602SOL    HW1 6247   0.177   2.448   1.508  0.1894 -1.1099 -1.8196
 1602SOL    HW2 6248   0.144   2.579   1.441  1.0926 -0.3474 -0.8047
 1603SOL     OW 6249   0.225   1.619  11.957  0.5151  0.1595  0.6700
 1603SOL    HW1 6250   0.174   1.576  12.026 -0.7360  1.9525  0.9498
 1603SOL    HW2 6251   0.207   1.712  11.970  2.1761  0.6913 -0.6204
 1604SOL     OW 6252   1.312   4.361   2.400  0.0244  0.0053  0.3719
 1604SOL    HW1 6253   1.380   4.312   2.354  1.3871  0.8561  1.3909
 1604SOL    HW2 6254   1.249   4.295   2.428  0.4411 -0.8107 -0.5494
 1605SOL     OW 6255   1.185   5.221   2.802 -0.7444  0.3875  0.0722
 1605SOL    HW1 6256   1.165   5.210   2.709  1.5835 -1.4201 -0.3013
 1605SOL    HW2 6257   1.150   5.308   2.824 -1.9305  0.5919 -2.2926
 1606SOL     OW 6258   4.021   1.823   1.951  0.6645  0.1661 -0.3285
 1606SOL    HW1 6259   3.977   1.743   1.921  0.4200  0.2438 -0.1784
 1606SOL    HW2 6260   4.104   1.824   1.903  1.3585 -0.9762  0.7612
 1607SOL     OW 6261   0.336   3.462  11.532 -0.0546  0.3585 -0.1539
 1607SOL    HW1 6262   0.318   3.555  11.515 -0.6702  0.0823 -1.0729
 1607SOL    HW2 6263   0.416   3.444  11.483  1.1349  0.8466  1.5316
 1608SOL     OW 6264   0.966   2.835   0.304 -0.4495 -0.5135 -0.0132
 1608SOL    HW1 6265   0.924   2.874   0.227 -1.7348 -0.3825  0.7192
 1608SOL    HW2 6266   1.035   2.779   0.268 -0.6649 -0.0376 -1.2306
 1609SOL     OW 6267   6.003   1.992   1.968 -0.9788  0.6153 -0.0108
 1609SOL    HW1 6268   6.032   1.987   2.059 -0.2265  0.8430 -0.2285
 1609SOL    HW2 6269   6.079   1.965   1.917 -1.5023  0.1515 -0.5627
 1610SOL     OW 6270   0.983   3.182   0.163 -0.1335  0.5037  0.0545
 1610SOL    HW1 6271   0.910   3.218   0.113 -0.5536 -1.0901 -0.5552
 1610SOL    HW2 6272   1.029   3.127   0.100 -1.0266 -2.0793  1.5126
 1611SOL     OW 6273   7.563   2.542   2.174  0.0479 -0.3377  0.3540
 1611SOL    HW1 6274   7.590   2.563   2.263  1.2883  0.1768 -0.1179
 1611SOL    HW2 6275   7.578   2.623   2.125 -0.3677 -0.6926 -0.3698
 1612SOL     OW 6276   1.050   3.626   1.836  0.0356 -0.7036 -0.4727
 1612SOL    HW1 6277   0.983   3.683   1.874  0.9481 -1.0705  1.8452
 1612SOL    HW2 6278   1.002   3.570   1.775 -1.3986  0.4333 -0.4305
 1613SOL     OW 6279   1.279   3.247   0.541 -0.3774  0.0359  0.0251
 1613SOL    HW1 6280   1.255   3.188   0.469 -0.1048  0.3939 -0.3650
 1613SOL    HW2 6281   1.320   3.322   0.498 -0.3807  0.3420  0.5440
 1614SOL     OW 6282   0.103   1.472   0.756 -0.6656  0.1269 -0.2269
 1614SOL    HW1 6283   0.190   1.434   0.738  0.1876  1.4161  0.9693
 1614SOL    HW2 6284   0.060   1.407   0.812  0.4155  0.4582  1.0314
 1615SOL     OW 6285   7.807   3.720   0.052 -0.2843  0.1203 -0.1215
 1615SOL    HW1 6286   7.786   3.711  -0.041 -0.7582  1.7179 -0.1978
 1615SOL    HW2 6287   7.754   3.794   0.081  0.2108 -0.0668  1.3222
 1616SOL     OW 6288   7.882   0.372   2.685  0.1102  0.2761 -0.4621
 1616SOL    HW1 6289   7.857   0.453   2.730  0.1383  0.1072 -0.1404
 1616SOL    HW2 6290   7.845   0.381   2.597 -0.7602  0.1949 -0.1160
 1617SOL     OW 6291   1.183   2.035   1.934  0.4159 -0.1059 -0.0447
 1617SOL    HW1 6292   1.256   2.011   1.992 -0.0624 -1.0981  0.1694
 1617SOL    HW2 6293   1.162   2.125   1.959  0.2201 -0.5046  1.3448
 1618SOL     OW 6294   0.720   2.993   1.396 -0.1185 -0.4383 -0.1576
 1618SOL    HW1 6295   0.646   3.027   1.347 -0.6156  0.8063  1.3940
 1618SOL    HW2 6296   0.787   3.061   1.390  0.9137 -1.5112 -1.4692
 1619SOL     OW 6297   7.530   3.883   1.227 -0.2666 -0.0428 -0.5163
 1619SOL    HW1 6298   7.530   3.800   1.274 -0.8560  0.6882  0.8376
 1619SOL    HW2 6299   7.617   3.920   1.242 -0.6575  0.4754  0.5747
 1620SOL     OW 6300   0.126   0.504  12.168  0.5023 -0.6494  0.1324
 1620SOL    HW1 6301   0.122   0.465  12.081  1.1111 -1.8544  0.6232
 1620SOL    HW2 6302   0.166   0.590  12.154 -0.9720 -0.0961 -0.9839
 1621SOL     OW 6303   2.213   2.356   0.936  0.0113 -0.3161 -0.1472
 1621SOL    HW1 6304   2.298   2.340   0.896 -0.1271 -1.1427 -0.1276
 1621SOL    HW2 6305   2.211   2.297   1.011 -0.0965  0.5673  0.5581
 1622SOL     OW 6306   7.373   0.818   0.304  0.6377  0.0704  0.1800
 1622SOL    HW1 6307   7.375   0.781   0.216  0.3522  0.6569 -0.0762
 1622SOL    HW2 6308   7.380   0.912   0.291 -1.4778  0.3421  0.6461
 1623SOL     OW 6309   1.287   3.449   1.568  0.5033  0.1860  0.1135
 1623SOL    HW1 6310   1.205   3.435   1.616  1.2953 -1.7503  1.0115
 1623SOL    HW2 6311   1.288   3.543   1.549 -0.8365  0.6633  2.0915
 1624SOL     OW 6312   7.576   2.544   2.937 -0.0610 -0.4362  0.0422
 1624SOL    HW1 6313   7.670   2.543   2.921  0.0863  1.0128  0.7001
 1624SOL    HW2 6314   7.546   2.458   2.908  1.4461 -0.8889 -0.2489
 1625SOL     OW 6315   3.127   3.637   0.727 -0.5968  0.5129  0.7172
 1625SOL    HW1 6316   3.115   3.665   0.818  0.7299  3.5264  0.0884
 1625SOL    HW2 6317   3.100   3.714   0.675 -0.6444 -0.8745 -1.4264
 1626SOL     OW 6318   1.049   2.516   0.147 -0.0365 -0.2593  0.7850
 1626SOL    HW1 6319   1.112   2.445   0.158  0.2094 -0.0425  0.7841
 1626SOL    HW2 6320   0.993   2.487   0.074  0.4027 -0.2106  0.4215
 1627SOL     OW 6321   3.304   3.206   2.330  0.4232 -0.1000  0.3885
 1627SOL    HW1 6322   3.303   3.171   2.419 -0.1986  0.1960  0.5056
 1627SOL    HW2 6323   3.262   3.292   2.337  0.2217 -0.1395 -0.2164
 1628SOL     OW 6324   1.536   5.867   1.888  0.5438 -0.0163  0.1164
 1628SOL    HW1 6325   1.564   5.850   1.798 -0.7656  1.7817 -0.6939
 1628SOL    HW2 6326   1.603   5.926   1.923  1.1250 -0.8207  0.4046
 1629SOL     OW 6327   1.698   4.372   2.373 -0.0400  0.0032 -0.4640
 1629SOL    HW1 6328   1.750   4.320   2.434 -0.9649 -1.2834 -0.7520
 1629SOL    HW2 6329   1.633   4.416   2.428 -0.4285 -0.6011 -0.4403
 1630SOL     OW 6330   0.230   2.582   1.029 -0.1955 -0.3255  0.1148
 1630SOL    HW1 6331   0.319   2.545   1.027  0.6150  1.4333 -2.5810
 1630SOL    HW2 6332   0.177   2.515   0.986  0.6450  0.1449 -1.7957
 1631SOL     OW 6333   1.627   4.190   0.243 -0.1628 -0.6425  0.1991
 1631SOL    HW1 6334   1.641   4.132   0.318 -1.1540 -1.0898  0.0621
 1631SOL    HW2 6335   1.611   4.276   0.281  0.4067 -0.6389  0.4442
 1632SOL     OW 6336   1.390   1.944   2.099  0.5909  0.1861 -0.0164
 1632SOL    HW1 6337   1.450   1.992   2.043  0.6897 -0.6010 -0.5995
 1632SOL    HW2 6338   1.446   1.884   2.149  0.2481 -1.0812 -1.0989
 1633SOL     OW 6339   2.355   3.974   0.641 -0.1971 -0.0158  0.2233
 1633SOL    HW1 6340   2.283   3.997   0.699 -1.6939 -2.5654 -0.4533
 1633SOL    HW2 6341   2.432   3.976   0.696 -1.2887 -0.4302  1.8494
 1634SOL     OW 6342   0.828   3.719   0.829 -0.2683 -0.0034  0.6446
 1634SOL    HW1 6343   0.918   3.695   0.804 -0.5449 -1.0521  0.5941
 1634SOL    HW2 6344   0.839   3.792   0.890  0.5848  0.3141  0.1380
 1635SOL     OW 6345   7.412   4.386   1.686  0.3334 -0.1103 -0.2786
 1635SOL    HW1 6346   7.361   4.351   1.613  0.2640 -0.1561 -0.2083
 1635SOL    HW2 6347   7.347   4.408   1.753  0.3256  0.6248 -0.5157
 1636SOL     OW 6348   0.810   2.432   0.689  0.0087 -0.0176  0.2834
 1636SOL    HW1 6349   0.797   2.338   0.673  3.1460 -0.2934 -1.5392
 1636SOL    HW2 6350   0.782   2.474   0.608  1.0869  0.2768  0.0355
 1637SOL     OW 6351   1.157   2.340   1.228  0.1760  0.1866  0.0597
 1637SOL    HW1 6352   1.072   2.324   1.187  0.6299 -2.2869 -0.0191
 1637SOL    HW2 6353   1.145   2.422   1.276 -2.3001 -0.1773  0.1897
 1638SOL     OW 6354   1.325   2.431   0.151  0.4852 -0.3824  0.0861
 1638SOL    HW1 6355   1.329   2.425   0.055 -2.4086 -0.7375 -0.0988
 1638SOL    HW2 6356   1.411   2.404   0.180  1.5226 -0.0803 -2.4226
 1639SOL     OW 6357   0.845   3.502   4.253  0.2879 -0.1842  0.0876
 1639SOL    HW1 6358   0.793   3.446   4.196  0.2541  0.8566 -0.9164
 1639SOL    HW2 6359   0.790   3.578   4.271  1.3353  0.8386 -0.8220
 1640SOL     OW 6360   0.376   2.686   1.252 -0.4239  0.2169  0.5977
 1640SOL    HW1 6361   0.329   2.664   1.172 -1.5689  2.4748  0.5580
 1640SOL    HW2 6362   0.307   2.695   1.318  0.3262  0.0914  1.4086
 1641SOL     OW 6363   0.164   3.710   1.572  0.0866  0.4912 -0.2849
 1641SOL    HW1 6364   0.141   3.801   1.587 -2.0574 -0.0750  0.1494
 1641SOL    HW2 6365   0.120   3.687   1.490  1.2083  0.0267 -0.7756
 1642SOL     OW 6366   2.520   1.809   1.513  0.2953 -0.4721  0.0490
 1642SOL    HW1 6367   2.524   1.772   1.424  2.9288 -1.3373  0.4450
 1642SOL    HW2 6368   2.590   1.764   1.560  0.4694  1.6518  1.9436
 1643SOL     OW 6369   1.167   3.476  11.977  0.1066 -0.2669 -0.2227
 1643SOL    HW1 6370   1.163   3.492  12.071 -0.2348  0.1953 -0.3090
 1643SOL    HW2 6371   1.133   3.387  11.966  2.7313 -1.4348  0.3433
 1644SOL     OW 6372   1.502   4.565   2.850 -0.1367 -0.2577  0.1310
 1644SOL    HW1 6373   1.511   4.599   2.940  1.1978 -2.8315  1.0667
 1644SOL    HW2 6374   1.409   4.543   2.843  0.1937 -2.9669  2.1777
 1645SOL     OW 6375   7.288   0.914   2.598 -0.0007 -0.6442 -0.0350
 1645SOL    HW1 6376   7.268   0.956   2.681 -0.2737  0.3739 -0.5961
 1645SOL    HW2 6377   7.383   0.916   2.592  0.1954 -2.9766  1.3674
 1646SOL     OW 6378   7.392   2.785  12.253  0.8937 -0.2908 -0.3716
 1646SOL    HW1 6379   7.303   2.770  12.283  1.0389  0.3757  0.4185
 1646SOL    HW2 6380   7.439   2.704  12.274  0.3732 -0.8377 -1.2481
 1647SOL     OW 6381   1.395   2.204   1.097  0.3948  0.0049 -0.4756
 1647SOL    HW1 6382   1.316   2.229   1.146  0.4505  1.1236 -0.9363
 1647SOL    HW2 6383   1.381   2.240   1.009  1.7975  1.0026 -0.3176
 1648SOL     OW 6384   1.366   4.599   1.066  1.0696 -0.1116  0.2380
 1648SOL    HW1 6385   1.306   4.581   1.138  0.9343 -1.4720 -0.1941
 1648SOL    HW2 6386   1.340   4.685   1.034 -0.5289 -0.5844  0.1842
 1649SOL     OW 6387   0.733   3.211   0.022  0.5771  0.2246  0.0065
 1649SOL    HW1 6388   0.719   3.286  -0.035 -1.3402 -0.4229 -0.4743
 1649SOL    HW2 6389   0.725   3.245   0.111  0.3289  0.6920 -0.1947
 1650SOL     OW 6390   6.078   2.663   1.057 -0.0950  0.5173 -0.3309
 1650SOL    HW1 6391   6.069   2.669   1.153 -0.8538  0.6397 -0.4057
 1650SOL    HW2 6392   6.080   2.754   1.028 -3.1851  0.5775 -0.7058
 1651SOL     OW 6393   1.007   3.235  12.026 -0.1192 -0.0368 -0.0765
 1651SOL    HW1 6394   0.951   3.197  11.959  0.8434 -0.9019 -0.4138
 1651SOL    HW2 6395   1.063   3.163  12.054 -1.4631 -0.1438  2.7357
 1652SOL     OW 6396   0.322   3.400   0.958 -0.3576 -0.3682 -0.1605
 1652SOL    HW1 6397   0.238   3.378   0.998 -0.6306  0.6979 -0.1183
 1652SOL    HW2 6398   0.381   3.413   1.033 -0.2708 -0.6458 -0.1783
 1653SOL     OW 6399   1.631   2.227   0.739  0.0170  0.3293  0.0172
 1653SOL    HW1 6400   1.692   2.286   0.784  0.9712 -0.2781 -0.4352
 1653SOL    HW2 6401   1.548   2.239   0.785 -0.2175  3.0438 -0.9150
 1654SOL     OW 6402   0.755   4.885   1.255 -0.0235 -0.4884  0.0207
 1654SOL    HW1 6403   0.832   4.936   1.277 -0.0948 -0.8315  1.1071
 1654SOL    HW2 6404   0.779   4.794   1.275 -1.2892 -0.4177  2.1572
 1655SOL     OW 6405   7.370   2.855   2.414 -0.2536 -0.5480 -0.3019
 1655SOL    HW1 6406   7.297   2.914   2.433 -0.5928 -1.3351  0.9586
 1655SOL    HW2 6407   7.448   2.908   2.428 -0.5443  0.4524 -2.1591
 1656SOL     OW 6408   7.289   3.160   2.701 -0.4778 -0.0249 -0.4045
 1656SOL    HW1 6409   7.237   3.089   2.665  0.8581 -0.8991 -0.6685
 1656SOL    HW2 6410   7.372   3.156   2.654  0.2970  0.5431  0.8636
 1657SOL     OW 6411   7.497   1.242   2.597 -0.1256 -0.3780 -0.4971
 1657SOL    HW1 6412   7.500   1.274   2.507 -0.0095 -0.7116 -0.6149
 1657SOL    HW2 6413   7.454   1.312   2.646  0.5407  0.1495 -0.6583
 1658SOL     OW 6414   0.488   1.577   2.644  0.0302 -0.2655 -0.5258
 1658SOL    HW1 6415   0.411   1.629   2.621  0.1821  0.3924  0.3873
 1658SOL    HW2 6416   0.459   1.520   2.715  0.3302 -0.1367 -0.2951
 1659SOL     OW 6417   2.397   4.092   3.733 -0.4054  0.7813  0.3004
 1659SOL    HW1 6418   2.447   4.062   3.809  0.0636 -2.0328 -0.9765
 1659SOL    HW2 6419   2.459   4.143   3.681  0.9848 -1.8177 -0.7589
 1660SOL     OW 6420   0.340   2.118   2.117 -0.6456 -0.3002 -0.0345
 1660SOL    HW1 6421   0.419   2.065   2.113  0.8655  1.7822  0.6677
 1660SOL    HW2 6422   0.306   2.116   2.027 -0.0914 -1.6043 -0.2377
 1661SOL     OW 6423   0.028   2.551   1.853 -0.0763  0.3238  0.2395
 1661SOL    HW1 6424   0.043   2.480   1.915  0.6327 -0.3754 -0.6971
 1661SOL    HW2 6425   0.103   2.609   1.863 -0.5040  0.7939  0.7894
 1662SOL     OW 6426   0.219   3.436   2.979 -0.1289  0.1615  0.5376
 1662SOL    HW1 6427   0.298   3.429   3.033 -0.3185  0.6428  0.8807
 1662SOL    HW2 6428   0.250   3.421   2.890 -0.0219 -2.0088  0.8784
 1663SOL     OW 6429   2.313   1.798   2.225  0.4560 -0.4052 -0.1299
 1663SOL    HW1 6430   2.259   1.812   2.303  0.3933  2.3874 -0.5773
 1663SOL    HW2 6431   2.301   1.705   2.205 -2.2188 -0.4794  1.2416
 1664SOL     OW 6432   6.025   2.282   1.350 -0.2140 -0.1038 -0.3337
 1664SOL    HW1 6433   6.040   2.331   1.430 -0.4256  0.1912 -0.4745
 1664SOL    HW2 6434   5.934   2.254   1.355 -0.6597  1.1033 -1.1064
 1665SOL     OW 6435   1.010   4.385   1.776 -0.3315 -0.2398 -0.6893
 1665SOL    HW1 6436   0.995   4.462   1.723  1.4646 -0.0282 -0.9475
 1665SOL    HW2 6437   1.071   4.413   1.844 -0.9145 -1.0412  0.2086
 1666SOL     OW 6438   0.342   3.486   4.232 -0.0049  0.0665 -0.3732
 1666SOL    HW1 6439   0.272   3.438   4.277  0.2472  0.5704  0.5785
 1666SOL    HW2 6440   0.301   3.569   4.206 -0.1172 -0.1752 -0.9769
 1667SOL     OW 6441   0.613   2.605   2.852  0.2911 -0.4231 -0.0487
 1667SOL    HW1 6442   0.590   2.673   2.916 -1.3437 -2.9544  2.2730
 1667SOL    HW2 6443   0.709   2.604   2.852  0.3921 -0.5822  2.7905
 1668SOL     OW 6444   1.346   2.303   3.621  0.6028  0.0094  0.1944
 1668SOL    HW1 6445   1.433   2.317   3.658 -0.3331  1.5234  1.9950
 1668SOL    HW2 6446   1.346   2.352   3.539  0.5778  2.4971  1.5912
 1669SOL     OW 6447   2.116   3.086   2.278  0.4143  0.1552 -0.4003
 1669SOL    HW1 6448   2.154   3.055   2.360  1.5984  0.5575 -0.7835
 1669SOL    HW2 6449   2.191   3.098   2.219 -0.3940  0.0251 -1.4942
 1670SOL     OW 6450   7.471   3.504   2.182 -0.3701 -0.0562 -0.5526
 1670SOL    HW1 6451   7.439   3.582   2.136 -0.7513 -0.2132 -0.5519
 1670SOL    HW2 6452   7.400   3.478   2.240  0.3374  0.5041  0.6093
 1671SOL     OW 6453   0.735   2.218   4.534 -0.7009  0.6256 -0.1729
 1671SOL    HW1 6454   0.752   2.257   4.620 -0.2289  0.7433 -0.3166
 1671SOL    HW2 6455   0.702   2.291   4.482  1.3174  1.1665 -0.7952
 1672SOL     OW 6456   0.278   3.572   1.806 -0.8675  0.1009  0.0187
 1672SOL    HW1 6457   0.333   3.495   1.795 -1.2230 -0.1813  0.2030
 1672SOL    HW2 6458   0.225   3.576   1.726  1.0055  1.6863 -1.2454
 1673SOL     OW 6459   6.729   3.600   4.006 -0.5852 -0.3206 -0.2243
 1673SOL    HW1 6460   6.743   3.507   4.022 -1.2272 -0.1050  2.0159
 1673SOL    HW2 6461   6.722   3.608   3.911 -0.1519 -2.4919 -0.4788
 1674SOL     OW 6462   7.666   4.201   3.560  0.3840  0.1157  0.1277
 1674SOL    HW1 6463   7.666   4.153   3.477  1.0102 -0.3598  0.3924
 1674SOL    HW2 6464   7.621   4.143   3.622  4.4727 -2.0519  1.4618
 1675SOL     OW 6465   0.916   2.356   1.493 -0.2963  0.0367 -0.3504
 1675SOL    HW1 6466   0.946   2.438   1.455 -0.3752 -0.2732 -1.1014
 1675SOL    HW2 6467   0.994   2.301   1.497 -0.5225 -0.3869 -1.2988
 1676SOL     OW 6468   3.002   1.591   3.195 -0.3130  0.2277  0.1658
 1676SOL    HW1 6469   3.085   1.551   3.220  0.0985  2.1456  2.2552
 1676SOL    HW2 6470   2.971   1.540   3.120  2.6861 -0.5929 -0.6254
 1677SOL     OW 6471   0.205   2.118   3.329 -0.1300  0.5888 -0.3033
 1677SOL    HW1 6472   0.233   2.089   3.416 -1.6256  1.2362  0.4317
 1677SOL    HW2 6473   0.285   2.151   3.288  0.7716 -0.5220  0.4772
 1678SOL     OW 6474   0.761   2.129   3.066  0.9064 -0.0262  0.3861
 1678SOL    HW1 6475   0.779   2.185   2.991  2.5380 -0.3969  0.4624
 1678SOL    HW2 6476   0.677   2.160   3.100  0.4791  0.6028 -1.1605
 1679SOL     OW 6477   7.489   2.871   1.375  0.2487 -0.1178  0.0134
 1679SOL    HW1 6478   7.522   2.914   1.454  1.2917 -0.0827 -0.4164
 1679SOL    HW2 6479   7.474   2.942   1.313  0.3332 -0.2227 -0.1285
 1680SOL     OW 6480   0.922   1.500   2.644  0.6969 -0.2681  0.4286
 1680SOL    HW1 6481   0.882   1.582   2.615 -1.1798 -1.6318 -1.1345
 1680SOL    HW2 6482   0.858   1.461   2.703  2.4579  0.2559  2.8279
 1681SOL     OW 6483   1.425   3.036   0.028 -0.1657 -0.0865 -0.0604
 1681SOL    HW1 6484   1.447   3.039  -0.065  1.5110  0.9318  0.3222
 1681SOL    HW2 6485   1.443   2.945   0.053  1.3635  0.1082 -0.3246
 1682SOL     OW 6486   1.653   4.015   2.887  0.0805  0.0986  0.2995
 1682SOL    HW1 6487   1.559   4.033   2.881 -0.2522 -1.0239  1.5538
 1682SOL    HW2 6488   1.686   4.083   2.946 -0.4935 -1.0847  2.0760
 1683SOL     OW 6489   2.371   3.130   3.064 -0.1786  0.5465  0.4704
 1683SOL    HW1 6490   2.282   3.136   3.030  0.1627  1.3655 -0.3340
 1683SOL    HW2 6491   2.377   3.042   3.101 -0.2917 -0.8959 -2.5841
 1684SOL     OW 6492   2.425   4.084   4.028  0.2382  0.7803 -0.7865
 1684SOL    HW1 6493   2.503   4.136   4.045  0.8886 -0.6769  1.0350
 1684SOL    HW2 6494   2.459   3.998   4.005 -0.8082  0.0523  0.2963
 1685SOL     OW 6495   7.968   2.379   3.152 -0.2369 -0.0075  0.0075
 1685SOL    HW1 6496   8.015   2.315   3.098 -1.0354 -1.9395  1.4727
 1685SOL    HW2 6497   8.031   2.450   3.166  1.3894 -1.3750 -0.1015
 1686SOL     OW 6498   6.491   2.560   1.321 -0.1909  0.1832  0.2485
 1686SOL    HW1 6499   6.425   2.563   1.391 -1.6101  1.2150 -1.0882
 1686SOL    HW2 6500   6.521   2.650   1.312  0.1852  0.0048 -0.3003
 1687SOL     OW 6501   0.797   1.855   1.306  0.4965 -0.2245 -0.0212
 1687SOL    HW1 6502   0.761   1.769   1.285 -2.3646  1.0659 -0.8623
 1687SOL    HW2 6503   0.805   1.899   1.221  1.4145  0.5379  0.4406
 1688SOL     OW 6504   1.405   3.169   3.471 -0.1405  0.2032  0.7089
 1688SOL    HW1 6505   1.355   3.091   3.448  0.3587 -0.3089  1.3515
 1688SOL    HW2 6506   1.409   3.220   3.390  1.7193 -1.6158 -0.4296
 1689SOL     OW 6507   0.599   2.933   4.256  0.0108  0.1842 -0.2467
 1689SOL    HW1 6508   0.565   2.899   4.339 -2.9921 -0.3181 -1.5586
 1689SOL    HW2 6509   0.647   2.859   4.218  0.4312  0.0660  0.4752
 1690SOL     OW 6510   2.726   1.754   4.543  0.0424 -0.0571 -0.5385
 1690SOL    HW1 6511   2.820   1.745   4.528 -0.0257 -0.6998 -0.5896
 1690SOL    HW2 6512   2.720   1.805   4.624  0.4370 -0.4200 -0.2763
 1691SOL     OW 6513   0.990   1.677   2.223 -0.5883  0.2419  0.2485
 1691SOL    HW1 6514   1.007   1.694   2.130  1.7278 -1.4173  0.2841
 1691SOL    HW2 6515   1.012   1.758   2.267  0.7730  0.2692 -0.4374
 1692SOL     OW 6516   7.152   2.839   1.997  0.0118 -0.5095 -0.3482
 1692SOL    HW1 6517   7.095   2.809   2.068 -0.0586 -0.1647 -0.2578
 1692SOL    HW2 6518   7.138   2.934   1.993 -0.0757 -0.5399 -0.9011
 1693SOL     OW 6519   1.629   0.994   1.012  0.0199  0.4811  0.0737
 1693SOL    HW1 6520   1.693   0.922   1.013  0.9563  1.2862  0.4116
 1693SOL    HW2 6521   1.553   0.959   1.058 -0.1106 -0.7734 -1.0111
 1694SOL     OW 6522   1.552   3.327   3.645 -0.5916  0.3379  0.3598
 1694SOL    HW1 6523   1.620   3.263   3.665  0.6088  0.8425 -1.7874
 1694SOL    HW2 6524   1.484   3.277   3.601  0.3030  0.4318 -1.2314
 1695SOL     OW 6525   1.037   3.048   3.496 -0.4466  0.5615  0.2500
 1695SOL    HW1 6526   0.945   3.024   3.490 -0.9528  2.2968  0.5597
 1695SOL    HW2 6527   1.042   3.108   3.571  0.5412  2.1643 -1.0439
 1696SOL     OW 6528   3.256   0.553   4.173 -0.4801  0.1490  0.0965
 1696SOL    HW1 6529   3.244   0.482   4.110 -0.2222 -0.7403  1.0343
 1696SOL    HW2 6530   3.169   0.571   4.206 -0.3917 -0.5383  0.7160
 1697SOL     OW 6531   0.461   2.610   2.603  0.4025  0.0452 -0.6376
 1697SOL    HW1 6532   0.405   2.533   2.594  1.1150 -0.5570  0.0370
 1697SOL    HW2 6533   0.512   2.594   2.682 -1.4035  2.4673  1.1940
 1698SOL     OW 6534   7.969   3.011   2.786  0.0378 -0.2582 -0.3113
 1698SOL    HW1 6535   7.995   2.937   2.841  1.0857  0.4419  0.1673
 1698SOL    HW2 6536   8.001   3.088   2.833 -1.1516  0.5224 -0.7295
 1699SOL     OW 6537   1.592   1.691   1.069  0.3584 -0.8878  0.7507
 1699SOL    HW1 6538   1.632   1.717   0.985  1.8597 -0.2837  1.6181
 1699SOL    HW2 6539   1.610   1.597   1.075 -0.9527 -1.2342 -0.2035
 1700SOL     OW 6540   0.021   3.683   1.348 -0.1753  0.3249 -0.3681
 1700SOL    HW1 6541   0.028   3.669   1.253 -0.4556 -0.6827 -0.2487
 1700SOL    HW2 6542  -0.046   3.621   1.377  0.3167  0.2143  0.5760
 1701SOL     OW 6543   0.702   4.011   4.029  0.1521  0.4513  0.0017
 1701SOL    HW1 6544   0.761   4.027   4.103 -0.9405  0.6205  0.8646
 1701SOL    HW2 6545   0.690   4.097   3.989 -0.4936  0.6534  0.6049
 1702SOL     OW 6546   0.112   1.435   2.322 -0.0602  0.0557 -0.1333
 1702SOL    HW1 6547   0.091   1.518   2.365  0.8278  0.3773 -0.2768
 1702SOL    HW2 6548   0.202   1.416   2.351 -0.3714 -1.0312  0.1546
 1703SOL     OW 6549   2.416   0.764   2.666 -0.2011  0.1016  0.0368
 1703SOL    HW1 6550   2.346   0.825   2.644 -0.3185  0.0229  0.1922
 1703SOL    HW2 6551   2.384   0.679   2.636 -0.8370 -0.2003  1.4958
 1704SOL     OW 6552   3.166   2.688   2.820 -0.0623  0.0420  0.3584
 1704SOL    HW1 6553   3.085   2.726   2.852 -0.0782  1.2804 -1.0397
 1704SOL    HW2 6554   3.140   2.604   2.782 -1.0629  1.2436 -1.7692
 1705SOL     OW 6555   0.439   3.199   2.105 -0.1390 -0.0255 -0.2444
 1705SOL    HW1 6556   0.350   3.217   2.074 -0.5462 -0.6129  0.5447
 1705SOL    HW2 6557   0.439   3.105   2.125 -0.4304  0.5311  3.0289
 1706SOL     OW 6558   1.309   4.406   3.515 -0.3430 -0.1377  0.7938
 1706SOL    HW1 6559   1.354   4.455   3.583  1.5811 -0.5156 -0.1205
 1706SOL    HW2 6560   1.216   4.426   3.527 -0.0965 -0.3427  3.6005
 1707SOL     OW 6561   0.277   3.592   3.252  0.4363  0.1548 -0.0350
 1707SOL    HW1 6562   0.185   3.600   3.228  1.0861  1.5498 -2.4160
 1707SOL    HW2 6563   0.297   3.499   3.238 -0.4776 -0.0477 -0.0532
 1708SOL     OW 6564   1.255   2.542   2.687  0.0555  0.0744  0.1912
 1708SOL    HW1 6565   1.321   2.600   2.649 -0.8864  0.3700 -1.0290
 1708SOL    HW2 6566   1.173   2.590   2.680 -0.8345 -1.5587 -1.2701
 1709SOL     OW 6567   0.110   3.769   2.748 -0.1624  0.4347 -0.1268
 1709SOL    HW1 6568   0.153   3.688   2.720 -0.9856  0.1986 -0.7526
 1709SOL    HW2 6569   0.058   3.744   2.824 -1.3684  0.0809 -1.0373
 1710SOL     OW 6570   0.680   3.522   2.961 -0.1612  0.0287  0.3060
 1710SOL    HW1 6571   0.618   3.471   3.013 -0.5040 -0.0045 -0.1293
 1710SOL    HW2 6572   0.766   3.485   2.982 -0.4232 -0.8764 -0.1722
 1711SOL     OW 6573   2.481   1.460   1.860 -0.2020 -0.0178 -0.1305
 1711SOL    HW1 6574   2.403   1.477   1.913 -0.8316  1.4762 -1.4465
 1711SOL    HW2 6575   2.446   1.433   1.775  0.5009  3.2126 -1.6218
 1712SOL     OW 6576   0.757   3.315   1.721 -0.8150 -0.2770 -0.4635
 1712SOL    HW1 6577   0.735   3.223   1.728  0.3631 -0.5194  0.2533
 1712SOL    HW2 6578   0.731   3.353   1.805  0.6090 -0.3947  0.0571
 1713SOL     OW 6579   0.476   3.246   1.548  0.9307 -0.5181 -0.0150
 1713SOL    HW1 6580   0.502   3.323   1.498 -1.5835 -0.2096 -0.9678
 1713SOL    HW2 6581   0.498   3.172   1.492 -1.1109 -0.2070 -1.3337
 1714SOL     OW 6582   1.617   1.533   3.852 -0.0305 -0.3411  0.5608
 1714SOL    HW1 6583   1.634   1.523   3.946 -0.1754 -1.8243  0.4537
 1714SOL    HW2 6584   1.692   1.583   3.819 -0.4089  0.9640  1.5896
 1715SOL     OW 6585   1.507   2.059   1.906 -0.0853  0.1585  0.1839
 1715SOL    HW1 6586   1.577   2.052   1.841  0.4784 -0.1593  0.8025
 1715SOL    HW2 6587   1.463   2.142   1.885 -0.0646 -0.0510 -0.7309
 1716SOL     OW 6588   2.858   3.826   2.970  0.0048  1.0683 -0.2947
 1716SOL    HW1 6589   2.845   3.806   2.877 -1.2010  0.7173 -0.0765
 1716SOL    HW2 6590   2.841   3.743   3.015  3.8313  0.3441  0.0862
 1717SOL     OW 6591   1.223   1.457   2.278  0.1918  0.0248  0.4140
 1717SOL    HW1 6592   1.305   1.459   2.229 -0.2104  1.0244 -0.2559
 1717SOL    HW2 6593   1.251   1.459   2.370  0.9291 -0.7396  0.2229
 1718SOL     OW 6594   6.742   3.124   3.903 -0.8206 -0.4943 -0.0668
 1718SOL    HW1 6595   6.688   3.178   3.962 -0.2184  0.2769 -0.1996
 1718SOL    HW2 6596   6.787   3.063   3.961  0.8436  1.1629  0.5053
 1719SOL     OW 6597   0.904   1.040   1.883 -0.3060 -0.1972  0.0267
 1719SOL    HW1 6598   0.851   1.012   1.957 -0.4767 -0.9549 -0.3732
 1719SOL    HW2 6599   0.860   1.119   1.850 -0.1630  0.2064  0.7875
 1720SOL     OW 6600   1.425   2.859   2.554  0.8186 -0.6467  0.0268
 1720SOL    HW1 6601   1.336   2.867   2.590 -0.2604 -2.3923 -2.0095
 1720SOL    HW2 6602   1.422   2.909   2.472  1.4746 -1.3495 -0.4341
 1721SOL     OW 6603   3.247   1.166   3.310  0.0939  0.1726 -0.1383
 1721SOL    HW1 6604   3.213   1.118   3.386 -1.7332 -0.0799 -1.0620
 1721SOL    HW2 6605   3.338   1.135   3.301  0.0361 -0.5137  1.3452
 1722SOL     OW 6606   0.911   0.398   0.705  0.1841  0.2088 -0.2589
 1722SOL    HW1 6607   0.899   0.429   0.615  0.0889  1.4566  0.1628
 1722SOL    HW2 6608   0.822   0.375   0.733  0.2050 -0.1234 -0.4588
 1723SOL     OW 6609   1.774   3.121   3.963 -0.1603  0.1965  0.0974
 1723SOL    HW1 6610   1.698   3.168   3.997  0.1152  0.9475 -0.2996
 1723SOL    HW2 6611   1.850   3.172   3.993  0.1048  0.7137 -1.3300
 1724SOL     OW 6612   1.050   3.572   2.326  0.9153 -0.2008 -0.1142
 1724SOL    HW1 6613   1.091   3.485   2.329 -0.5745 -0.9201  2.1340
 1724SOL    HW2 6614   1.012   3.577   2.239  0.0796 -2.3115  0.0595
 1725SOL     OW 6615   0.617   1.153   3.176  0.0926  0.0700  0.6555
 1725SOL    HW1 6616   0.684   1.220   3.187 -0.8083  0.9656  0.7767
 1725SOL    HW2 6617   0.560   1.186   3.107 -0.4162 -0.5290  0.7744
 1726SOL     OW 6618   1.667   2.121   1.693 -0.0445 -0.4695  0.4464
 1726SOL    HW1 6619   1.727   2.077   1.632 -2.0253 -0.0284 -1.9872
 1726SOL    HW2 6620   1.722   2.184   1.740  1.4141  0.0305 -1.7742
 1727SOL     OW 6621   0.999   1.805   1.958  0.6200 -0.0324 -0.8234
 1727SOL    HW1 6622   1.050   1.884   1.939  2.4933 -0.8230  0.6318
 1727SOL    HW2 6623   1.012   1.750   1.881  0.7869  0.3458 -1.0721
 1728SOL     OW 6624   0.255   2.702   3.530 -0.1710 -0.3377 -0.1136
 1728SOL    HW1 6625   0.342   2.664   3.539  0.0603  0.0533 -0.6867
 1728SOL    HW2 6626   0.197   2.639   3.574  0.3983 -0.5891  0.2787
 1729SOL     OW 6627   1.413   0.834   0.632 -0.3584 -0.1177  0.5752
 1729SOL    HW1 6628   1.333   0.858   0.584  0.3902 -1.1759 -1.2859
 1729SOL    HW2 6629   1.387   0.760   0.687 -0.5546 -0.7375 -0.3470
 1730SOL     OW 6630   7.477   3.332   2.508 -0.1360 -0.3075 -0.1207
 1730SOL    HW1 6631   7.527   3.253   2.529 -1.2176 -1.3093 -1.1480
 1730SOL    HW2 6632   7.498   3.394   2.578  1.5869 -1.1104  0.1127
 1731SOL     OW 6633   2.806   0.471   1.614  0.2339 -0.1032  1.2804
 1731SOL    HW1 6634   2.879   0.416   1.640  0.0018 -0.3223  1.4735
 1731SOL    HW2 6635   2.843   0.531   1.549  0.1400 -1.5597 -0.1842
 1732SOL     OW 6636   2.120   2.662   4.481  0.0903  0.0282  0.0775
 1732SOL    HW1 6637   2.187   2.682   4.547  0.7218 -0.1699 -0.4877
 1732SOL    HW2 6638   2.039   2.695   4.518  0.4928  0.2151  0.8114
 1733SOL     OW 6639   0.547   4.154   2.573  0.2675  0.3424  0.0896
 1733SOL    HW1 6640   0.545   4.111   2.658  0.2434  0.3265  0.0810
 1733SOL    HW2 6641   0.498   4.096   2.515  0.7524  0.0707 -0.0642
 1734SOL     OW 6642   7.829   3.107   1.232  0.1458 -1.0871 -0.2411
 1734SOL    HW1 6643   7.864   3.050   1.300  0.5187 -0.1623  0.3618
 1734SOL    HW2 6644   7.868   3.193   1.249 -1.9699 -0.1242  0.1424
 1735SOL     OW 6645   7.832   2.589   2.879 -0.0665  0.0788 -0.3444
 1735SOL    HW1 6646   7.851   2.496   2.896  1.2039  0.5643  1.1561
 1735SOL    HW2 6647   7.876   2.608   2.796 -1.4687 -0.9565 -1.3699
 1736SOL     OW 6648   6.675   3.048   2.407  0.2830 -0.7118  0.0929
 1736SOL    HW1 6649   6.646   3.109   2.339 -2.0809 -0.6587  1.0579
 1736SOL    HW2 6650   6.665   2.961   2.367  0.4156 -0.6204 -0.1453
 1737SOL     OW 6651   6.639   2.818   1.342 -0.0575 -0.0595  0.1314
 1737SOL    HW1 6652   6.624   2.826   1.436  0.4312 -2.5227  0.4849
 1737SOL    HW2 6653   6.730   2.788   1.334 -0.4204 -0.9371 -1.0475
 1738SOL     OW 6654   1.622   1.705   1.818  0.3973 -0.0870 -0.2325
 1738SOL    HW1 6655   1.712   1.691   1.848  0.5563 -0.7551 -0.9942
 1738SOL    HW2 6656   1.574   1.731   1.897  1.3393  0.7017  0.0961
 1739SOL     OW 6657   0.076   1.087   3.869  0.0658  0.0608  0.5355
 1739SOL    HW1 6658   0.114   1.173   3.855  1.3821 -0.8609 -2.3973
 1739SOL    HW2 6659  -0.016   1.104   3.888  0.1253  2.1216 -0.7353
 1740SOL     OW 6660   0.911   0.401   1.075 -0.6142  0.7781  0.1497
 1740SOL    HW1 6661   0.816   0.395   1.079 -0.6534 -0.1518 -1.4387
 1740SOL    HW2 6662   0.928   0.483   1.027 -0.7901 -0.8676 -3.0269
 1741SOL     OW 6663   1.334   4.121   1.983 -0.2237  0.4649 -0.3073
 1741SOL    HW1 6664   1.424   4.118   1.949 -0.8865 -0.1415 -2.1160
 1741SOL    HW2 6665   1.301   4.033   1.971 -0.3341 -0.0009  2.6535
 1742SOL     OW 6666   1.842   2.024   1.535 -0.2641  0.1163  0.0397
 1742SOL    HW1 6667   1.885   1.943   1.563 -2.2616 -0.1361  2.8386
 1742SOL    HW2 6668   1.914   2.086   1.520  1.1994 -1.4494  0.3056
 1743SOL     OW 6669   1.370   2.774   1.385 -0.1175  0.3707  0.2478
 1743SOL    HW1 6670   1.289   2.823   1.371 -0.0528  0.5358  0.4621
 1743SOL    HW2 6671   1.363   2.700   1.324  0.0402  0.9479 -0.4765
 1744SOL     OW 6672   2.403   0.690   2.956 -0.2182  0.2663 -0.4799
 1744SOL    HW1 6673   2.409   0.744   2.877  1.2483  0.2870 -0.3893
 1744SOL    HW2 6674   2.432   0.603   2.928 -0.3342  0.1093 -0.1169
 1745SOL     OW 6675   3.230   2.278   1.285 -0.0541  0.1005 -0.1520
 1745SOL    HW1 6676   3.299   2.325   1.332 -1.6427  1.5671  0.8570
 1745SOL    HW2 6677   3.213   2.331   1.207  0.8669 -0.9993 -1.1380
 1746SOL     OW 6678   0.550   0.788   0.699  0.4532 -0.1373  0.1023
 1746SOL    HW1 6679   0.462   0.791   0.738  0.5074  1.3186  0.1570
 1746SOL    HW2 6680   0.538   0.737   0.619 -0.5311  0.3747 -0.0983
 1747SOL     OW 6681   0.744   2.308   2.846 -0.0741  0.3227 -0.1573
 1747SOL    HW1 6682   0.678   2.332   2.780 -1.3052 -1.4519  0.3337
 1747SOL    HW2 6683   0.817   2.275   2.794 -0.6909 -0.2575 -0.6929
 1748SOL     OW 6684   7.965   3.334   2.341 -0.1736 -0.1275 -0.2464
 1748SOL    HW1 6685   7.936   3.278   2.413  2.1135 -0.1294  0.7635
 1748SOL    HW2 6686   7.896   3.400   2.334 -1.7317 -1.6253  0.1586
 1749SOL     OW 6687   2.192   2.726   3.417 -0.0873  0.2033  0.5056
 1749SOL    HW1 6688   2.167   2.709   3.508 -2.5147 -0.9421 -0.2647
 1749SOL    HW2 6689   2.116   2.771   3.379  0.8876  0.7114 -0.9306
 1750SOL     OW 6690   7.976   2.280   2.521  0.0439  0.3947  0.6121
 1750SOL    HW1 6691   7.903   2.306   2.464  0.9828  0.5870 -0.5353
 1750SOL    HW2 6692   7.960   2.188   2.540  0.2955  0.0209 -0.8882
 1751SOL     OW 6693   1.297   2.699   4.906 -0.0707 -0.2139 -0.0543
 1751SOL    HW1 6694   1.206   2.670   4.910  0.0550 -0.4961  1.5584
 1751SOL    HW2 6695   1.305   2.740   4.820 -1.0603 -2.2909 -1.2290
 1752SOL     OW 6696   2.984   2.112   2.694 -0.1011 -0.6111  0.2424
 1752SOL    HW1 6697   3.026   2.197   2.684  0.1996 -0.8074 -0.2550
 1752SOL    HW2 6698   2.892   2.132   2.712  0.0365 -0.1809  0.4744
 1753SOL     OW 6699   6.403   2.714   4.421  0.2302 -0.2095 -0.2000
 1753SOL    HW1 6700   6.368   2.744   4.337 -0.7647 -1.0447 -0.1041
 1753SOL    HW2 6701   6.435   2.626   4.404 -1.1019 -0.8703  0.5492
 1754SOL     OW 6702   0.594   2.621   1.424 -1.0134  0.2695 -0.1407
 1754SOL    HW1 6703   0.587   2.529   1.398  0.9350  0.3209 -1.0579
 1754SOL    HW2 6704   0.541   2.668   1.361 -0.3792 -0.0687 -0.9421
 1755SOL     OW 6705   7.571   4.140   1.461 -0.1642  0.3651  0.0775
 1755SOL    HW1 6706   7.633   4.181   1.402 -0.1950  1.0014  0.4753
 1755SOL    HW2 6707   7.603   4.051   1.472 -0.3035  0.1613 -1.0890
 1756SOL     OW 6708   1.512   2.883   0.876  0.0101 -0.2568  0.3031
 1756SOL    HW1 6709   1.463   2.835   0.809  1.0804 -0.4535 -0.3590
 1756SOL    HW2 6710   1.446   2.904   0.943 -0.4483 -3.0250  0.8641
 1757SOL     OW 6711   0.164   4.257   3.017 -0.0163 -0.1762 -0.2284
 1757SOL    HW1 6712   0.150   4.211   2.934 -2.3638 -0.1705  0.0934
 1757SOL    HW2 6713   0.210   4.194   3.072  2.8300  0.2702 -1.8692
 1758SOL     OW 6714   0.226   2.951   2.417  0.3697 -0.1979  0.1267
 1758SOL    HW1 6715   0.263   2.897   2.486 -1.6261  0.9666  2.2244
 1758SOL    HW2 6716   0.157   2.897   2.379  0.6439 -0.3688 -0.1383
 1759SOL     OW 6717   2.382   1.367   3.287  0.4085 -0.1647  0.3107
 1759SOL    HW1 6718   2.290   1.339   3.278  0.8719 -1.4864 -0.6691
 1759SOL    HW2 6719   2.377   1.447   3.339 -1.2299 -0.6878  1.0534
 1760SOL     OW 6720   1.044   3.025   1.844 -0.0410 -0.4000 -0.1167
 1760SOL    HW1 6721   1.118   3.055   1.791  0.1645 -0.6059  0.0502
 1760SOL    HW2 6722   1.084   2.992   1.925 -0.3866  0.3680  0.3813
 1761SOL     OW 6723   0.920   2.591   2.848  0.0768 -0.5485 -0.4005
 1761SOL    HW1 6724   0.932   2.673   2.801  0.3931 -0.9821 -1.0927
 1761SOL    HW2 6725   0.961   2.605   2.933  1.4865 -0.4867 -1.0663
 1762SOL     OW 6726   1.298   0.957   2.573 -0.1208 -0.6103 -0.0626
 1762SOL    HW1 6727   1.223   1.003   2.612  0.4288 -0.9527  1.4683
 1762SOL    HW2 6728   1.338   1.021   2.515 -0.9981 -0.0913 -0.1145
 1763SOL     OW 6729   6.931   3.447   0.870 -0.3157  0.1744 -0.0976
 1763SOL    HW1 6730   6.891   3.531   0.848  0.6026  0.5994 -0.2313
 1763SOL    HW2 6731   6.965   3.460   0.959 -1.2964 -0.4996  0.3937
 1764SOL     OW 6732   1.360   1.554   3.232 -0.2905 -0.5349 -0.3751
 1764SOL    HW1 6733   1.319   1.622   3.285  0.0070 -0.7154  0.0857
 1764SOL    HW2 6734   1.317   1.473   3.259  0.7739 -0.8119  0.5402
 1765SOL     OW 6735   0.178   1.881   2.360  0.0768 -0.4824 -0.1222
 1765SOL    HW1 6736   0.191   1.915   2.272  1.4765  3.0411  1.2594
 1765SOL    HW2 6737   0.236   1.805   2.366 -0.0857 -0.8173 -2.1858
 1766SOL     OW 6738   2.897   1.425   3.009 -0.0004 -0.1967 -0.3858
 1766SOL    HW1 6739   2.948   1.347   2.987 -0.1770 -0.0982 -1.1493
 1766SOL    HW2 6740   2.842   1.440   2.933 -0.6783  0.1046  0.1575
 1767SOL     OW 6741   0.540   1.948   2.125 -0.0561 -0.5307 -0.5397
 1767SOL    HW1 6742   0.566   1.856   2.128  0.9028 -0.2559  0.3521
 1767SOL    HW2 6743   0.610   1.991   2.078 -1.0360 -0.3946 -1.9174
 1768SOL     OW 6744   7.481   3.259   2.035 -0.3731  0.4054 -0.3085
 1768SOL    HW1 6745   7.443   3.215   2.111 -1.6013  0.0179 -1.1142
 1768SOL    HW2 6746   7.504   3.346   2.067  0.2144 -0.1183  0.7857
 1769SOL     OW 6747   6.554   1.700   3.229 -0.0512  0.1051  0.0111
 1769SOL    HW1 6748   6.588   1.617   3.264 -2.8681 -1.6272 -1.0135
 1769SOL    HW2 6749   6.468   1.710   3.270 -0.8170  1.2094 -1.7327
 1770SOL     OW 6750   0.396   1.484   4.456  0.3736  0.6031 -0.0056
 1770SOL    HW1 6751   0.338   1.432   4.511  1.6793 -0.1509  0.7388
 1770SOL    HW2 6752   0.378   1.575   4.479 -0.0833  0.3542  0.6329
 1771SOL     OW 6753   7.331   4.591   3.353 -0.1926  0.3727  0.1352
 1771SOL    HW1 6754   7.401   4.543   3.397  0.7972  1.3873 -0.2680
 1771SOL    HW2 6755   7.375   4.635   3.280 -1.7229 -1.0435 -1.7526
 1772SOL     OW 6756   7.695   2.326   2.103 -0.5321  0.1351  0.0306
 1772SOL    HW1 6757   7.629   2.275   2.151 -2.5740  1.7545 -0.9301
 1772SOL    HW2 6758   7.673   2.417   2.121  1.7554  0.7741  0.0046
 1773SOL     OW 6759   1.097   2.420   4.902  0.3552 -0.6050 -0.1649
 1773SOL    HW1 6760   1.185   2.421   4.864  0.1150  1.0352 -0.7980
 1773SOL    HW2 6761   1.039   2.439   4.828 -0.0359  3.8920  0.9803
 1774SOL     OW 6762   0.578   2.239   3.504 -0.5677  0.2248 -0.0021
 1774SOL    HW1 6763   0.616   2.152   3.516 -0.2444  0.5439  1.4202
 1774SOL    HW2 6764   0.543   2.238   3.415  0.1277 -1.0906 -0.2762
 1775SOL     OW 6765   2.070   1.357   1.800  0.2316 -0.1815 -0.6129
 1775SOL    HW1 6766   1.982   1.335   1.831  1.1149 -0.3812  2.0197
 1775SOL    HW2 6767   2.070   1.452   1.792 -0.1502 -0.1534 -0.2914
 1776SOL     OW 6768   2.077   1.407   3.095  0.0248 -0.5362 -0.0490
 1776SOL    HW1 6769   2.117   1.321   3.104 -0.2237 -0.5908  0.5231
 1776SOL    HW2 6770   1.998   1.391   3.044 -0.4198 -0.7692  0.7014
 1777SOL     OW 6771   0.045   2.733   2.340  0.0771  0.3657 -0.2564
 1777SOL    HW1 6772   0.122   2.676   2.340  0.2345  0.5478  1.3280
 1777SOL    HW2 6773  -0.008   2.703   2.413 -1.4178  0.2075 -1.3602
 1778SOL     OW 6774   1.396   1.890   2.673 -0.3136  0.4393  0.1099
 1778SOL    HW1 6775   1.472   1.929   2.631 -1.0803  1.3866 -0.4270
 1778SOL    HW2 6776   1.431   1.848   2.752  0.7318  0.9897 -0.0509
 1779SOL     OW 6777   7.265   2.845   4.412 -0.1598  0.2094 -0.1711
 1779SOL    HW1 6778   7.292   2.775   4.352  1.3590  0.0703  0.6243
 1779SOL    HW2 6779   7.254   2.801   4.497  0.7497  0.9042  0.3241
 1780SOL     OW 6780   1.534   3.317   0.658 -0.4642 -0.1109  0.2449
 1780SOL    HW1 6781   1.508   3.360   0.576  0.4727  0.0280  0.0072
 1780SOL    HW2 6782   1.588   3.244   0.630  1.0629  0.7679  0.7671
 1781SOL     OW 6783   7.485   1.621   1.819  0.4786  0.0347  0.2365
 1781SOL    HW1 6784   7.548   1.575   1.874  0.3552 -0.8367 -0.3388
 1781SOL    HW2 6785   7.534   1.697   1.786  0.8761 -0.0223  0.6738
 1782SOL     OW 6786   7.515   3.509   1.613 -0.2733  0.9570 -0.2171
 1782SOL    HW1 6787   7.556   3.442   1.668 -1.6891  0.3028  0.1007
 1782SOL    HW2 6788   7.427   3.520   1.651 -0.4540  2.1840 -0.9513
 1783SOL     OW 6789   5.107   2.988   2.216  0.3699  0.8995 -0.4281
 1783SOL    HW1 6790   5.128   3.033   2.298  0.7036 -0.1355  0.0825
 1783SOL    HW2 6791   5.172   2.918   2.210 -0.8760 -0.3019 -0.5331
 1784SOL     OW 6792   0.779   1.150   2.435 -0.2129 -0.1085 -0.4445
 1784SOL    HW1 6793   0.836   1.221   2.405  0.2727 -0.3908 -0.1937
 1784SOL    HW2 6794   0.755   1.103   2.354  0.8482 -0.6819 -0.4423
 1785SOL     OW 6795   0.046   3.007   3.961  0.0338 -0.1879 -0.2757
 1785SOL    HW1 6796   0.087   2.933   4.005  0.8119 -1.7596 -3.3252
 1785SOL    HW2 6797  -0.048   2.989   3.967  0.1225 -0.4066  0.6040
 1786SOL     OW 6798   7.603   2.629   4.721 -0.4353  0.1570  0.7204
 1786SOL    HW1 6799   7.572   2.642   4.811  1.0185 -0.0753  1.2886
 1786SOL    HW2 6800   7.625   2.535   4.717  0.1283  0.2978  0.3403
 1787SOL     OW 6801   1.594   3.112   1.293 -0.2470  0.5044  0.0499
 1787SOL    HW1 6802   1.687   3.106   1.274 -0.7086 -0.6753 -2.2734
 1787SOL    HW2 6803   1.575   3.033   1.344 -0.3550 -0.6312 -1.6504
 1788SOL     OW 6804   0.327   3.292   2.666 -0.0754 -0.7638  0.4587
 1788SOL    HW1 6805   0.334   3.220   2.730 -3.3642  0.2348  2.1612
 1788SOL    HW2 6806   0.325   3.248   2.581  0.6626 -2.4386  1.2516
 1789SOL     OW 6807   7.596   3.308   1.768 -0.2191  0.4465  0.1377
 1789SOL    HW1 6808   7.620   3.240   1.705 -0.4199 -0.0520  0.5875
 1789SOL    HW2 6809   7.552   3.261   1.839  1.1615  0.7860  1.2864
 1790SOL     OW 6810   2.221   2.912   2.976  0.0443  0.0142  0.5160
 1790SOL    HW1 6811   2.288   2.854   2.940 -1.8469 -2.6497  1.0255
 1790SOL    HW2 6812   2.172   2.942   2.899  0.2008 -0.1464  0.3532
 1791SOL     OW 6813   7.374   2.912   1.652 -0.2102  0.0563  0.2642
 1791SOL    HW1 6814   7.444   2.976   1.668 -0.1416  0.2148 -0.6443
 1791SOL    HW2 6815   7.407   2.830   1.690  0.8618 -0.0929 -0.9275
 1792SOL     OW 6816   5.615   3.122   3.816  0.3935  0.0668 -0.0699
 1792SOL    HW1 6817   5.573   3.205   3.836 -1.2082 -1.2722  2.6671
 1792SOL    HW2 6818   5.636   3.128   3.722 -1.0437  2.8981 -0.3168
 1793SOL     OW 6819   7.024   2.601   2.995  0.5389  0.4910 -0.1534
 1793SOL    HW1 6820   7.016   2.683   3.045  2.8914  0.0111  1.2066
 1793SOL    HW2 6821   6.935   2.579   2.970 -0.1984  3.4210 -0.5291
 1794SOL     OW 6822   1.612   1.991   4.148  0.1140  0.3003  0.8188
 1794SOL    HW1 6823   1.654   2.018   4.229  0.3395  1.4204  0.3474
 1794SOL    HW2 6824   1.683   1.987   4.084 -0.2023  0.4067  0.4516
 1795SOL     OW 6825   1.911   0.887   4.896 -0.2881 -0.8876  0.0317
 1795SOL    HW1 6826   1.864   0.838   4.828  0.9133 -1.6032 -0.3241
 1795SOL    HW2 6827   2.003   0.861   4.884  0.1789  0.3413  0.7973
 1796SOL     OW 6828   0.682   4.215   3.277 -0.5162 -0.5325 -0.0440
 1796SOL    HW1 6829   0.776   4.198   3.280 -0.1030  1.4799 -0.3689
 1796SOL    HW2 6830   0.643   4.128   3.269  1.2311 -1.5189  1.2728
 1797SOL     OW 6831   1.426   0.500   3.420  0.2151 -0.4110  0.2928
 1797SOL    HW1 6832   1.369   0.424   3.419 -1.0907  0.5352  0.8696
 1797SOL    HW2 6833   1.514   0.464   3.406 -0.2922 -2.0740  1.1579
 1798SOL     OW 6834   0.565   3.917   2.732 -0.1306  0.8821  0.2565
 1798SOL    HW1 6835   0.627   3.893   2.800  0.5678  0.6008 -0.4623
 1798SOL    HW2 6836   0.607   3.891   2.650 -2.1011 -1.3219 -0.1588
 1799SOL     OW 6837   0.438   4.530   3.059 -0.0589  0.1679 -0.2650
 1799SOL    HW1 6838   0.429   4.523   3.154  1.1616 -0.9285 -0.1997
 1799SOL    HW2 6839   0.420   4.622   3.039  2.0428  1.0217  1.3554
 1800SOL     OW 6840   7.621   3.181   2.841  0.2225  0.4347 -0.3503
 1800SOL    HW1 6841   7.625   3.123   2.918 -0.0396 -0.6380 -1.1281
 1800SOL    HW2 6842   7.547   3.238   2.859 -2.2385 -2.2036 -1.3880
 1801SOL     OW 6843   1.220   4.174   3.690 -0.3306  0.0425  0.0951
 1801SOL    HW1 6844   1.260   4.252   3.652  0.7121 -0.4239  0.2000
 1801SOL    HW2 6845   1.134   4.203   3.721  0.9050  1.7296  2.2212
 1802SOL     OW 6846   0.775   2.140   0.097  0.1185  0.0660 -0.3063
 1802SOL    HW1 6847   0.710   2.173   0.035  1.9409  0.9057 -1.8727
 1802SOL    HW2 6848   0.801   2.055   0.062  0.2076 -0.0438  0.0226
 1803SOL     OW 6849   2.072   2.755   1.396 -1.0177 -0.6076  0.1676
 1803SOL    HW1 6850   2.010   2.807   1.447  1.0311  1.1204  1.0190
 1803SOL    HW2 6851   2.052   2.777   1.305 -0.4398  1.4662  0.4921
 1804SOL     OW 6852   2.528   3.307   3.224  0.1718  0.2563  0.4258
 1804SOL    HW1 6853   2.477   3.263   3.155  1.3522 -1.1176  0.3855
 1804SOL    HW2 6854   2.480   3.388   3.240 -0.9737 -0.0935 -0.9417
 1805SOL     OW 6855   6.941   3.288   1.400 -0.1264 -0.1652 -0.4027
 1805SOL    HW1 6856   7.023   3.253   1.435 -0.3040 -2.0468 -1.6900
 1805SOL    HW2 6857   6.968   3.339   1.323 -0.1364 -0.9405 -0.9378
 1806SOL     OW 6858   1.989   4.769   2.642 -0.3912 -0.1243  0.2076
 1806SOL    HW1 6859   2.080   4.742   2.633  0.0081  0.9344  0.9341
 1806SOL    HW2 6860   1.946   4.734   2.564  0.1799 -2.3938  0.8191
 1807SOL     OW 6861   7.744   0.552   2.221 -0.1701  0.4154 -0.0524
 1807SOL    HW1 6862   7.829   0.551   2.178  0.8456  0.3373  1.8644
 1807SOL    HW2 6863   7.705   0.636   2.196  1.4134  1.4302  0.7467
 1808SOL     OW 6864   0.194   2.745   1.445  0.0509  0.1939  0.0735
 1808SOL    HW1 6865   0.106   2.781   1.435 -0.3600 -0.7381  0.2978
 1808SOL    HW2 6866   0.246   2.818   1.479 -0.6493  0.7281  0.0106
 1809SOL     OW 6867   0.466   5.426   4.337 -0.1078 -0.1447 -0.3931
 1809SOL    HW1 6868   0.402   5.357   4.324 -1.5003  1.4390 -2.8939
 1809SOL    HW2 6869   0.421   5.491   4.391  0.0459  0.1773 -0.6460
 1810SOL     OW 6870   1.743   3.522   3.870 -0.2150  0.1976  0.3017
 1810SOL    HW1 6871   1.816   3.534   3.930 -0.1559  2.4459 -0.1169
 1810SOL    HW2 6872   1.685   3.460   3.914  1.5173 -0.9610  1.0137
 1811SOL     OW 6873   0.836   2.526   1.937  0.4387  0.6883 -0.1279
 1811SOL    HW1 6874   0.889   2.578   1.877  1.6624 -0.7482 -0.3511
 1811SOL    HW2 6875   0.800   2.456   1.883  0.6418  0.0212  0.5835
 1812SOL     OW 6876   6.839   2.976   2.974 -0.2563 -0.2584 -0.1458
 1812SOL    HW1 6877   6.835   3.065   3.009 -0.3872 -0.5973  0.7156
 1812SOL    HW2 6878   6.856   2.920   3.050  0.5320 -0.9036 -0.7748
 1813SOL     OW 6879   0.265   3.600   4.594 -0.4219  0.2081  0.3925
 1813SOL    HW1 6880   0.196   3.555   4.545  0.1657 -1.1960  0.7999
 1813SOL    HW2 6881   0.245   3.582   4.686 -0.0804  0.6489  0.5572
 1814SOL     OW 6882   1.500   2.608   2.368  0.2111  0.1427  0.0519
 1814SOL    HW1 6883   1.500   2.682   2.428 -1.7298 -0.6206  1.0844
 1814SOL    HW2 6884   1.522   2.532   2.423  2.5466 -0.0608 -1.0582
 1815SOL     OW 6885   7.630   2.921   3.450  0.3246  0.5831  0.3330
 1815SOL    HW1 6886   7.601   3.009   3.475 -1.4971 -0.3103  1.5968
 1815SOL    HW2 6887   7.667   2.884   3.530 -0.4311 -0.3583  0.2604
 1816SOL     OW 6888   7.989   1.898   1.718  0.0405  0.3212 -0.2244
 1816SOL    HW1 6889   7.926   1.965   1.690 -1.7998 -1.4209 -0.5087
 1816SOL    HW2 6890   7.999   1.911   1.812 -1.3168  0.2092 -0.0484
 1817SOL     OW 6891   0.742   3.427   4.494 -0.6307  0.6158 -0.1518
 1817SOL    HW1 6892   0.788   3.460   4.417 -0.9814  4.5038  1.0790
 1817SOL    HW2 6893   0.799   3.449   4.568 -0.0490 -3.4933  0.8299
 1818SOL     OW 6894   2.448   2.926   0.978  0.4478 -0.2753 -0.3816
 1818SOL    HW1 6895   2.508   2.873   0.926 -0.1034  0.1728 -1.4999
 1818SOL    HW2 6896   2.361   2.898   0.951  0.1388  1.1695 -0.9982
 1819SOL     OW 6897   1.013   2.240   2.007  0.0508 -0.0433 -0.3050
 1819SOL    HW1 6898   1.014   2.255   2.102 -0.5150 -0.3768 -0.2365
 1819SOL    HW2 6899   1.030   2.325   1.968  0.4901  0.0574  0.0993
 1820SOL     OW 6900   7.549   4.008   2.163  0.5142 -0.0727 -0.0874
 1820SOL    HW1 6901   7.572   4.074   2.099 -0.0311  0.1732 -0.0384
 1820SOL    HW2 6902   7.565   4.049   2.248  3.0122 -1.0210 -0.0192
 1821SOL     OW 6903   1.044   3.256   2.997 -0.2903 -0.3316 -0.0938
 1821SOL    HW1 6904   1.091   3.241   3.080 -1.3458  0.2925  0.6474
 1821SOL    HW2 6905   1.098   3.213   2.931  0.0342 -1.8152  1.0643
 1822SOL     OW 6906   1.011   2.475   2.450  0.3822  0.6435 -0.1824
 1822SOL    HW1 6907   0.932   2.527   2.437 -0.0356  0.2529  0.6491
 1822SOL    HW2 6908   1.081   2.539   2.464  0.1075  0.9911 -0.3932
 1823SOL     OW 6909   0.524   2.007   1.837 -0.1127 -0.1594  0.1599
 1823SOL    HW1 6910   0.603   2.042   1.879 -0.4811  2.0419 -0.8276
 1823SOL    HW2 6911   0.556   1.960   1.760  0.2530  2.4138 -1.3807
 1824SOL     OW 6912   7.897   2.433   1.620 -0.0190  0.1966 -0.1043
 1824SOL    HW1 6913   7.925   2.450   1.710 -0.6589 -3.3068  0.9102
 1824SOL    HW2 6914   7.968   2.468   1.566  1.0067  1.2332  1.8169
 1825SOL     OW 6915   2.838   1.060   3.418  0.1149  0.1677 -0.0244
 1825SOL    HW1 6916   2.908   1.122   3.399  0.1211 -0.4505 -2.2617
 1825SOL    HW2 6917   2.757   1.106   3.394 -0.0643  0.0694  0.3793
 1826SOL     OW 6918   7.317   4.250   1.180  0.1223 -0.3105 -0.0617
 1826SOL    HW1 6919   7.330   4.198   1.101 -0.1725 -1.0233  0.3500
 1826SOL    HW2 6920   7.355   4.336   1.159 -0.4059 -0.3293 -1.1390
 1827SOL     OW 6921   7.989   3.913   3.747 -0.1194 -0.2603  0.1942
 1827SOL    HW1 6922   8.056   3.947   3.807  0.8418 -0.7623 -0.5837
 1827SOL    HW2 6923   7.991   3.973   3.673 -1.1472  0.2208  0.5377
 1828SOL     OW 6924   1.445   2.856   4.024  0.2069 -0.3693  0.4040
 1828SOL    HW1 6925   1.384   2.782   4.026 -2.2724  1.4939 -1.0702
 1828SOL    HW2 6926   1.392   2.931   4.051  2.6119  0.9511  1.7622
 1829SOL     OW 6927   7.623   1.739   2.766  0.4346 -0.0162  0.2050
 1829SOL    HW1 6928   7.682   1.768   2.696  0.3079  0.8592  0.4488
 1829SOL    HW2 6929   7.536   1.744   2.727  0.4947 -1.2079 -0.1204
 1830SOL     OW 6930   7.487   4.957   3.296 -0.1319 -0.1983 -0.4989
 1830SOL    HW1 6931   7.406   4.911   3.275 -0.7805  0.4029  0.5701
 1830SOL    HW2 6932   7.556   4.906   3.255 -0.8762 -1.8217  0.1881
 1831SOL     OW 6933   1.710   7.352   1.245 -0.4914  0.4842  0.7045
 1831SOL    HW1 6934   1.761   7.350   1.325  1.0324  1.8819 -0.1670
 1831SOL    HW2 6935   1.733   7.435   1.203 -0.2592 -0.7121 -1.7669
 1832SOL     OW 6936   0.764   2.972   2.903  0.0978  0.1721  0.1140
 1832SOL    HW1 6937   0.754   2.916   2.980  2.9414 -0.7769 -0.0743
 1832SOL    HW2 6938   0.779   3.059   2.938  0.5379 -0.0985  0.6059
 1833SOL     OW 6939   7.881   3.904   2.068  0.0281  0.6235 -0.0360
 1833SOL    HW1 6940   7.921   3.844   2.006 -1.3087 -0.5273  0.1499
 1833SOL    HW2 6941   7.854   3.979   2.015  1.9252  1.2134 -0.2324
 1834SOL     OW 6942   0.390   2.396   2.068  0.0671  0.0625 -0.2618
 1834SOL    HW1 6943   0.370   2.316   2.116  0.4444  1.1653  1.8925
 1834SOL    HW2 6944   0.483   2.412   2.086 -0.0450  1.0645 -0.4962
 1835SOL     OW 6945   7.858   1.090   3.334  0.2172 -0.2427  0.1720
 1835SOL    HW1 6946   7.772   1.097   3.374  0.9828  0.9184  1.7294
 1835SOL    HW2 6947   7.915   1.060   3.405  1.3635  0.5408 -0.3846
 1836SOL     OW 6948   7.422   3.178   5.272  0.3563 -0.4118 -0.0364
 1836SOL    HW1 6949   7.421   3.151   5.180 -2.4896 -0.4395 -0.0924
 1836SOL    HW2 6950   7.402   3.097   5.321 -0.0293 -0.0358  0.4375
 1837SOL     OW 6951   0.818   4.036   5.544 -0.1390 -0.6526  0.4776
 1837SOL    HW1 6952   0.783   4.072   5.463  0.2313  1.3426  1.1610
 1837SOL    HW2 6953   0.887   3.976   5.515  0.7770  0.8888 -0.6840
 1838SOL     OW 6954   0.425   2.690   2.340  0.0104 -0.0748 -0.0147
 1838SOL    HW1 6955   0.453   2.665   2.428  0.0575  0.7920  0.2200
 1838SOL    HW2 6956   0.365   2.620   2.313  0.6894 -0.8076  0.3454
 1839SOL     OW 6957   0.233   3.736   4.163  0.2119 -0.1102 -0.2419
 1839SOL    HW1 6958   0.282   3.818   4.151  3.3810 -0.9292  4.3449
 1839SOL    HW2 6959   0.152   3.764   4.206  1.2061  0.7809  1.1842
 1840SOL     OW 6960   3.062   2.755   3.524  0.1249  0.0168  0.1990
 1840SOL    HW1 6961   3.065   2.839   3.480 -0.6921 -0.4751 -0.8348
 1840SOL    HW2 6962   3.113   2.696   3.468  1.2131 -0.0687  1.2245
 1841SOL     OW 6963   0.039   1.277   2.711 -0.0874 -0.5734  0.3164
 1841SOL    HW1 6964  -0.036   1.313   2.664 -0.4456 -0.7140  0.7722
 1841SOL    HW2 6965   0.008   1.265   2.801 -0.6736 -3.9610 -0.2194
 1842SOL     OW 6966   7.847   3.615   1.615  0.1888  0.0567  0.3656
 1842SOL    HW1 6967   7.813   3.609   1.704 -0.1527  0.6775  0.2867
 1842SOL    HW2 6968   7.825   3.531   1.574 -2.1250  0.7705  0.0276
 1843SOL     OW 6969   0.215   2.506   2.332  0.7027 -0.1498  0.2571
 1843SOL    HW1 6970   0.175   2.433   2.286  0.2877 -0.3482  0.9189
 1843SOL    HW2 6971   0.247   2.469   2.414  0.4964  0.3985  0.5957
 1844SOL     OW 6972   0.685   2.560   0.911 -0.1394  0.5010 -0.4187
 1844SOL    HW1 6973   0.756   2.608   0.954 -0.0117  0.0347 -0.0939
 1844SOL    HW2 6974   0.726   2.521   0.834 -0.2232  0.8452 -0.6374
 1845SOL     OW 6975   2.799   3.375   3.996  0.3631  0.1163  0.1892
 1845SOL    HW1 6976   2.792   3.467   3.974  0.2826  0.7704  2.6546
 1845SOL    HW2 6977   2.892   3.360   4.010  0.1456  0.6236  2.5979
 1846SOL     OW 6978   7.109   2.957   2.684  0.4329  0.1170 -0.3244
 1846SOL    HW1 6979   7.071   3.006   2.611 -0.5641  0.4582  0.4062
 1846SOL    HW2 6980   7.041   2.895   2.710  1.1141 -0.6171 -0.2525
 1847SOL     OW 6981   7.317   3.418   1.219 -0.2876  0.0240  0.1778
 1847SOL    HW1 6982   7.383   3.453   1.279 -0.3510  0.0314  0.2431
 1847SOL    HW2 6983   7.355   3.335   1.188  0.3983  0.7165 -0.9014
 1848SOL     OW 6984   0.645   3.846   2.497 -0.3382 -0.4508  0.3201
 1848SOL    HW1 6985   0.599   3.884   2.422  1.3479  1.5909  0.2071
 1848SOL    HW2 6986   0.709   3.786   2.457 -0.3404 -0.3729  0.1975
 1849SOL     OW 6987   3.016   3.181   2.875  0.3768  0.2020  0.1548
 1849SOL    HW1 6988   3.058   3.103   2.838  1.2592  0.3242  0.8676
 1849SOL    HW2 6989   3.030   3.249   2.810 -2.0471 -0.6425 -1.3691
 1850SOL     OW 6990   0.488   1.234   1.191  0.1159  0.1095  0.4543
 1850SOL    HW1 6991   0.435   1.219   1.113  0.5330 -0.1920  0.2231
 1850SOL    HW2 6992   0.491   1.329   1.202  2.3808  0.3555 -1.5400
 1851SOL     OW 6993   7.894   2.826   0.956  0.1352  0.1503  0.0801
 1851SOL    HW1 6994   7.825   2.760   0.949  0.6424 -0.4787  0.8172
 1851SOL    HW2 6995   7.847   2.909   0.967 -0.5046 -0.0598 -1.0119
 1852SOL     OW 6996   5.978   4.535   2.745  0.3605  0.3029 -0.1332
 1852SOL    HW1 6997   5.935   4.460   2.702  1.4615 -0.6366  0.3393
 1852SOL    HW2 6998   6.065   4.503   2.766  0.9146  1.7926 -0.0453
 1853SOL     OW 6999   2.418   2.541   3.199 -0.2174  0.3125  0.0723
 1853SOL    HW1 7000   2.483   2.606   3.171  0.1049 -0.0545 -0.0463
 1853SOL    HW2 7001   2.334   2.587   3.192  0.0905  1.0211  0.9191
 1854SOL     OW 7002   1.299   1.739   2.455  0.5815  0.1376  0.4189
 1854SOL    HW1 7003   1.210   1.762   2.430  0.2323 -1.2710  0.2596
 1854SOL    HW2 7004   1.312   1.781   2.540  0.1465  1.1794 -0.0131
 1855SOL     OW 7005   1.245   2.073   2.322  0.0384  0.0034  0.2323
 1855SOL    HW1 7006   1.307   2.120   2.378 -0.0317  0.7707 -0.3263
 1855SOL    HW2 7007   1.297   2.004   2.282  0.0602 -0.6533  1.3379
 1856SOL     OW 7008   0.156   7.568   1.681 -0.1486  0.0635  0.3692
 1856SOL    HW1 7009   0.137   7.476   1.659 -0.6422  0.0378  0.8599
 1856SOL    HW2 7010   0.071   7.605   1.703  0.3116 -0.0398  2.6199
 1857SOL     OW 7011   7.694   3.549   1.896 -0.2908 -0.6822 -0.0945
 1857SOL    HW1 7012   7.633   3.609   1.938  0.1513  0.2487 -0.7404
 1857SOL    HW2 7013   7.640   3.495   1.838 -0.5223  0.1263 -0.6535
 1858SOL     OW 7014   7.257   1.710   0.997 -0.1145  0.3881  0.2099
 1858SOL    HW1 7015   7.176   1.749   1.029  0.5897  2.8554 -0.7381
 1858SOL    HW2 7016   7.325   1.739   1.058  0.5700  1.5338 -1.0188
 1859SOL     OW 7017   0.805   0.587   2.601  0.5227 -0.3370 -1.0272
 1859SOL    HW1 7018   0.840   0.672   2.628  0.3335  0.3700 -2.8540
 1859SOL    HW2 7019   0.723   0.608   2.557 -0.2941 -1.6314 -0.1807
 1860SOL     OW 7020   1.958   2.383   2.471 -0.0607 -0.5822 -0.4443
 1860SOL    HW1 7021   1.964   2.424   2.385  0.6924  0.0662 -0.1036
 1860SOL    HW2 7022   1.965   2.456   2.533 -0.5602 -1.0419  0.1649
 1861SOL     OW 7023   0.163   2.272   1.029 -0.5260  0.0092 -0.2784
 1861SOL    HW1 7024   0.104   2.196   1.027 -0.3138 -0.2008  0.9291
 1861SOL    HW2 7025   0.142   2.317   1.110  1.0572 -0.1415  0.2529
 1862SOL     OW 7026   0.417   3.519   2.150  0.3596 -0.3773 -0.3304
 1862SOL    HW1 7027   0.324   3.542   2.141  0.4625  0.4658  0.6228
 1862SOL    HW2 7028   0.461   3.603   2.165  1.0299 -0.9544  1.1156
 1863SOL     OW 7029   1.757   1.528   6.099  0.1420  0.4311 -0.5168
 1863SOL    HW1 7030   1.775   1.605   6.045  0.0263  0.2028 -0.8837
 1863SOL    HW2 7031   1.766   1.454   6.039 -0.7129  0.2187 -0.4026
 1864SOL     OW 7032   0.799   2.370   3.884  0.3602  0.6403  0.3330
 1864SOL    HW1 7033   0.782   2.282   3.852  0.6658  0.6029  0.2761
 1864SOL    HW2 7034   0.732   2.424   3.841  0.3063  0.4720  0.2044
 1865SOL     OW 7035   7.654   2.914   3.713  0.7269 -0.6537  0.3554
 1865SOL    HW1 7036   7.744   2.883   3.709  1.3756  1.2481 -1.0549
 1865SOL    HW2 7037   7.660   3.009   3.706 -1.3802 -0.4460  0.5316
 1866SOL     OW 7038   1.483   5.620   3.864 -0.2444 -0.3053  0.3642
 1866SOL    HW1 7039   1.469   5.604   3.957  1.8916  0.0400  0.7814
 1866SOL    HW2 7040   1.461   5.712   3.851 -1.1794 -0.5148  0.3605
 1867SOL     OW 7041   2.716   0.023   4.093  0.0894  0.5729 -0.6554
 1867SOL    HW1 7042   2.701  -0.070   4.082  0.3481  0.2197  1.4832
 1867SOL    HW2 7043   2.636   0.055   4.135  1.0352  0.7309  1.1393
 1868SOL     OW 7044   0.923   2.403   5.122 -0.1943 -0.1670 -0.2426
 1868SOL    HW1 7045   0.981   2.424   5.049 -0.5529  0.7564 -0.2752
 1868SOL    HW2 7046   0.977   2.412   5.200 -0.2049  0.3749 -0.2946
 1869SOL     OW 7047   1.289   3.748   4.958  0.5166 -0.6063  0.5125
 1869SOL    HW1 7048   1.351   3.703   5.015  1.2353  1.5128  1.4895
 1869SOL    HW2 7049   1.325   3.738   4.870  0.4074 -2.2742  0.6270
 1870SOL     OW 7050   0.363   2.905   4.903  0.3609 -0.4575  0.2117
 1870SOL    HW1 7051   0.443   2.887   4.855  0.5091 -2.4289  1.1048
 1870SOL    HW2 7052   0.392   2.926   4.992 -0.1167 -1.4199  0.6009
 1871SOL     OW 7053   0.683   3.374   3.413  0.1311 -0.1299  0.3143
 1871SOL    HW1 7054   0.627   3.395   3.338  0.8677  1.1758  0.1050
 1871SOL    HW2 7055   0.764   3.341   3.374  0.4013  0.2586  0.5457
 1872SOL     OW 7056   7.042   4.590   8.777 -0.0255  0.3749  0.3539
 1872SOL    HW1 7057   7.042   4.639   8.859  0.1870 -0.8955  1.1346
 1872SOL    HW2 7058   7.104   4.637   8.721 -1.2899  2.1315  0.3433
 1873SOL     OW 7059   7.987   3.570   6.284 -0.0294 -0.4080  0.0690
 1873SOL    HW1 7060   8.052   3.552   6.352 -0.2805 -0.2226  0.3617
 1873SOL    HW2 7061   7.922   3.626   6.327  0.2131  0.3606 -0.5340
 1874SOL     OW 7062   0.989   2.369   5.409 -0.0097 -0.3401  0.1354
 1874SOL    HW1 7063   1.041   2.375   5.489  0.2949  1.3312 -0.1644
 1874SOL    HW2 7064   0.919   2.433   5.422 -0.0614 -0.1906 -0.8616
 1875SOL     OW 7065   0.417   3.421   7.283 -0.1285  0.8838  0.1906
 1875SOL    HW1 7066   0.408   3.407   7.189 -0.3401  0.7959  0.2221
 1875SOL    HW2 7067   0.390   3.512   7.296  2.0512  1.6154 -0.1238
 1876SOL     OW 7068   2.712   3.956   4.713 -0.2352  0.6552 -0.1454
 1876SOL    HW1 7069   2.772   3.892   4.752 -0.3295  0.5818 -0.1219
 1876SOL    HW2 7070   2.769   4.012   4.661 -0.2164  0.2436 -0.5749
 1877SOL     OW 7071   0.553   3.663   3.713  0.1178 -0.3459  0.0501
 1877SOL    HW1 7072   0.476   3.644   3.766  0.6059  0.6197  1.1372
 1877SOL    HW2 7073   0.525   3.735   3.656  0.3203  0.2379  0.6874
 1878SOL     OW 7074   1.407   5.246   5.716  0.3226 -0.0187  0.1934
 1878SOL    HW1 7075   1.385   5.208   5.631 -1.2982  2.0808 -0.4074
 1878SOL    HW2 7076   1.503   5.255   5.713  0.2086  1.3933 -2.1113
 1879SOL     OW 7077   1.498   4.995   4.941 -0.0401  0.2737  0.0381
 1879SOL    HW1 7078   1.474   4.912   4.982 -1.1304  1.4182  1.8402
 1879SOL    HW2 7079   1.484   5.061   5.009  1.5125  1.8788 -1.0920
 1880SOL     OW 7080   0.608   2.401   4.352  0.7105 -0.7614  0.8121
 1880SOL    HW1 7081   0.557   2.337   4.303  1.2880 -0.4944 -0.1629
 1880SOL    HW2 7082   0.544   2.466   4.382  0.3939 -0.7505  0.1207
 1881SOL     OW 7083   1.156   4.833   4.318  0.4836  0.1715 -0.1120
 1881SOL    HW1 7084   1.213   4.839   4.241 -0.5677 -0.4440 -0.9695
 1881SOL    HW2 7085   1.154   4.921   4.354 -0.5086  0.9388 -1.9114
 1882SOL     OW 7086   7.776   2.927   3.999 -0.4272  0.4566  0.0558
 1882SOL    HW1 7087   7.710   2.948   3.933 -0.2547  2.3229  0.4199
 1882SOL    HW2 7088   7.735   2.859   4.053 -0.7427 -0.7596 -1.6544
 1883SOL     OW 7089   3.023   2.369   2.951  0.2204  0.4132  0.9109
 1883SOL    HW1 7090   3.084   2.307   2.992 -0.4942 -0.8984  0.0492
 1883SOL    HW2 7091   3.053   2.376   2.861  0.1166  1.1270  0.9212
 1884SOL     OW 7092   1.190   2.798   2.055 -0.3768  0.3564  1.1812
 1884SOL    HW1 7093   1.104   2.757   2.071 -0.2515  0.6505  2.8008
 1884SOL    HW2 7094   1.253   2.733   2.086 -0.0977  0.8375  1.6528
 1885SOL     OW 7095   2.251   1.405   3.952  0.7679 -0.0165 -0.3155
 1885SOL    HW1 7096   2.330   1.417   4.003  0.1660  1.1625  0.3794
 1885SOL    HW2 7097   2.230   1.492   3.919 -1.8934  0.3752  2.0358
 1886SOL     OW 7098   7.624   4.054   2.411 -0.0109 -0.1176 -0.3809
 1886SOL    HW1 7099   7.700   4.098   2.373  0.4422 -0.3204  0.2686
 1886SOL    HW2 7100   7.597   4.110   2.483  0.5551 -0.8638  0.4377
 1887SOL     OW 7101   1.097   2.949   4.037  0.5036  0.0690  0.1812
 1887SOL    HW1 7102   1.030   3.015   4.016 -0.8359 -0.8521  1.3226
 1887SOL    HW2 7103   1.164   2.961   3.970 -0.8257  1.0050 -1.0645
 1888SOL     OW 7104   2.398   2.024   3.899  0.6247 -0.2848 -0.4537
 1888SOL    HW1 7105   2.400   2.061   3.988 -0.5665  0.4322 -0.6921
 1888SOL    HW2 7106   2.425   2.097   3.843  0.4001 -0.4306 -0.7524
 1889SOL     OW 7107   7.388   4.808   5.629  0.0031  0.1465 -0.1560
 1889SOL    HW1 7108   7.358   4.834   5.716 -0.0876  0.9220 -0.4104
 1889SOL    HW2 7109   7.311   4.770   5.587  0.3495 -1.3693  0.5216
 1890SOL     OW 7110   0.291   2.658   4.173  0.0793  0.7830  0.5621
 1890SOL    HW1 7111   0.273   2.657   4.079 -2.2451 -1.0957  0.9212
 1890SOL    HW2 7112   0.239   2.731   4.207  1.4755  1.9175  0.3658
 1891SOL     OW 7113   1.416   3.159   5.720  0.0945  0.0461 -0.3950
 1891SOL    HW1 7114   1.457   3.237   5.683  0.5805  0.0670  0.1775
 1891SOL    HW2 7115   1.457   3.149   5.806 -1.4978  0.4198  0.4653
 1892SOL     OW 7116   0.368   0.633   3.315 -0.1495 -0.6760  0.1363
 1892SOL    HW1 7117   0.379   0.539   3.327 -2.9384 -1.1625 -0.4940
 1892SOL    HW2 7118   0.274   0.646   3.307  0.0570  2.3348  1.2400
 1893SOL     OW 7119   7.752   3.275   4.914 -0.6046  0.0894  0.1522
 1893SOL    HW1 7120   7.836   3.272   4.867  0.1992 -0.7183  1.5717
 1893SOL    HW2 7121   7.773   3.315   4.998 -1.6342 -0.2089  0.5592
 1894SOL     OW 7122   0.400   3.745   5.093 -0.3899  0.3977 -0.2742
 1894SOL    HW1 7123   0.479   3.694   5.072 -0.9798 -1.6195  1.9208
 1894SOL    HW2 7124   0.428   3.836   5.085  1.5658 -0.2318 -1.5324
 1895SOL     OW 7125   7.306   3.043   3.393 -0.4555  0.1280 -0.2934
 1895SOL    HW1 7126   7.303   2.978   3.463  0.1447 -0.1174 -0.4939
 1895SOL    HW2 7127   7.372   3.106   3.421  0.6139 -0.5717 -1.1407
 1896SOL     OW 7128   1.813   3.986   5.358 -0.2134 -0.0025 -0.1082
 1896SOL    HW1 7129   1.841   4.049   5.292  1.9846 -0.5502  0.2002
 1896SOL    HW2 7130   1.890   3.975   5.415 -1.6040 -0.5157  1.7865
 1897SOL     OW 7131   2.988   2.473   3.194 -0.0107 -0.2292 -0.3435
 1897SOL    HW1 7132   2.976   2.450   3.102 -0.6336  0.9411 -0.5674
 1897SOL    HW2 7133   2.932   2.412   3.242 -0.5183 -0.1343 -0.8161
 1898SOL     OW 7134   0.033   4.044   4.719 -0.6984 -0.1798  0.4347
 1898SOL    HW1 7135   0.022   4.097   4.798 -1.1109 -1.6573  1.4171
 1898SOL    HW2 7136   0.116   3.999   4.732 -0.3915  0.1422 -0.3478
 1899SOL     OW 7137   1.435   1.438   4.312  0.1470 -0.5000 -0.0286
 1899SOL    HW1 7138   1.471   1.521   4.343  0.2725 -1.6022  3.1451
 1899SOL    HW2 7139   1.340   1.450   4.313  0.1097 -0.7246  1.6755
 1900SOL     OW 7140   1.313   2.091   3.412 -0.4310 -0.1331  0.0907
 1900SOL    HW1 7141   1.298   2.168   3.467  0.8102 -0.0572  0.3491
 1900SOL    HW2 7142   1.255   2.104   3.336  0.4946  1.5884 -0.3827
 1901SOL     OW 7143   1.066   2.324   4.289  0.2364 -0.2255 -0.5479
 1901SOL    HW1 7144   0.973   2.302   4.278  0.0737  0.0402  0.2313
 1901SOL    HW2 7145   1.070   2.418   4.277  0.4925 -0.3056 -1.1004
 1902SOL     OW 7146   1.405   0.757   4.661 -0.2686  0.1397 -0.5229
 1902SOL    HW1 7147   1.434   0.682   4.608  1.8911  1.6034 -1.5519
 1902SOL    HW2 7148   1.436   0.833   4.613  1.3323  1.6088  2.5742
 1903SOL     OW 7149   0.683   2.462   6.457 -0.2086 -0.1577 -0.6177
 1903SOL    HW1 7150   0.624   2.405   6.408  1.0139 -1.6171 -0.4600
 1903SOL    HW2 7151   0.763   2.412   6.466  0.3207  0.9024  1.0820
 1904SOL     OW 7152   7.838   4.324   4.700  0.0337  0.4149  0.0481
 1904SOL    HW1 7153   7.799   4.237   4.712 -0.3670  0.5248 -0.4484
 1904SOL    HW2 7154   7.765   4.381   4.677 -0.1479  1.4553  2.8748
 1905SOL     OW 7155   0.479   4.609   4.367  0.1975  0.3378  0.4916
 1905SOL    HW1 7156   0.411   4.629   4.431  1.3880  0.9131  1.6076
 1905SOL    HW2 7157   0.430   4.578   4.290 -1.2231 -1.8147  2.1366
 1906SOL     OW 7158   7.275   2.348   4.848  0.5961 -0.0961 -0.2276
 1906SOL    HW1 7159   7.329   2.315   4.920 -0.4859 -0.2314  0.5494
 1906SOL    HW2 7160   7.242   2.432   4.880  0.4786  0.0638 -0.7589
 1907SOL     OW 7161   1.642   4.789   4.500 -0.0520 -0.2056  0.3445
 1907SOL    HW1 7162   1.721   4.785   4.446  0.3995  0.3673  0.9497
 1907SOL    HW2 7163   1.590   4.859   4.460  0.8220  1.0526  1.3311
 1908SOL     OW 7164   7.586   4.214   2.622 -0.1280  0.2540 -0.4888
 1908SOL    HW1 7165   7.672   4.257   2.622 -0.0070  0.0666  1.1071
 1908SOL    HW2 7166   7.524   4.285   2.635  0.1257 -0.0097  3.0443
 1909SOL     OW 7167   3.723   0.212   6.101 -0.2991  0.3609 -0.1627
 1909SOL    HW1 7168   3.799   0.243   6.149 -0.6233 -1.8547  1.9745
 1909SOL    HW2 7169   3.655   0.278   6.119  0.0462  0.3817  1.1732
 1910SOL     OW 7170   1.605   2.954   5.150 -0.0049 -0.1594  0.5128
 1910SOL    HW1 7171   1.518   2.922   5.126 -0.7154  0.7251  1.8120
 1910SOL    HW2 7172   1.591   3.006   5.229  1.4582  1.3155 -0.1302
 1911SOL     OW 7173   7.269   2.633   4.227 -0.1493 -0.1792  0.0828
 1911SOL    HW1 7174   7.197   2.651   4.167  0.3695  0.3749 -0.3930
 1911SOL    HW2 7175   7.299   2.545   4.203 -0.0827 -0.0454 -0.3417
 1912SOL     OW 7176   0.465   2.555   5.386 -0.1433 -0.1551 -0.7384
 1912SOL    HW1 7177   0.517   2.558   5.306  0.3371 -0.5731 -0.4513
 1912SOL    HW2 7178   0.460   2.646   5.415  2.0372 -0.2865  0.2274
 1913SOL     OW 7179   0.300   3.391   3.642  0.3579 -0.2199 -0.2273
 1913SOL    HW1 7180   0.228   3.408   3.703  0.2158  0.2318 -0.5176
 1913SOL    HW2 7181   0.257   3.377   3.558  0.6580  1.0229 -0.6010
 1914SOL     OW 7182   1.651   3.878   4.502  0.3543  0.3823  0.3922
 1914SOL    HW1 7183   1.629   3.960   4.457  1.7563  0.1224 -0.8588
 1914SOL    HW2 7184   1.727   3.900   4.556  0.6274 -0.0305  0.1871
 1915SOL     OW 7185   1.580   4.115   5.077  0.1837 -0.7176  0.0291
 1915SOL    HW1 7186   1.511   4.118   5.011  0.8043 -1.0937 -0.6447
 1915SOL    HW2 7187   1.620   4.202   5.074  0.2329 -0.7458 -0.1063
 1916SOL     OW 7188   1.024   3.317   2.520 -0.5133  0.1389 -0.0718
 1916SOL    HW1 7189   1.000   3.256   2.451  0.1007 -2.0944  1.5574
 1916SOL    HW2 7190   0.957   3.306   2.587  0.7145 -0.3322  1.1367
 1917SOL     OW 7191   0.507   3.067   5.447 -0.2901  0.2173 -0.0570
 1917SOL    HW1 7192   0.589   3.081   5.398 -0.0045  0.5310  0.5042
 1917SOL    HW2 7193   0.475   2.983   5.415  1.1062 -0.7282  0.8850
 1918SOL     OW 7194   0.027   3.024   3.513 -0.5906  0.6016 -0.3794
 1918SOL    HW1 7195  -0.033   2.975   3.570 -0.2917 -0.8233 -1.2391
 1918SOL    HW2 7196   0.111   3.020   3.557 -0.6390  0.5999 -0.2882
 1919SOL     OW 7197   1.085   4.241   2.142 -0.2500  0.2975 -0.2956
 1919SOL    HW1 7198   1.112   4.221   2.232 -1.1352 -0.5212 -0.1912
 1919SOL    HW2 7199   1.164   4.228   2.090 -0.2726 -1.5300  0.0606
 1920SOL     OW 7200   7.441   1.313   4.962 -0.0177  0.1248 -0.1240
 1920SOL    HW1 7201   7.522   1.365   4.955  1.0902 -1.1863  1.9457
 1920SOL    HW2 7202   7.371   1.376   4.950  1.2986  1.4903 -1.0049
 1921SOL     OW 7203   1.895   2.835   4.154 -0.3866 -0.3110  0.0695
 1921SOL    HW1 7204   1.955   2.819   4.081  0.5058  1.3894  0.3599
 1921SOL    HW2 7205   1.937   2.906   4.204 -1.4544 -0.7509  1.6763
 1922SOL     OW 7206   1.920   3.564   4.096 -0.6157  0.2476 -0.1680
 1922SOL    HW1 7207   1.872   3.633   4.141 -0.5624  0.2565 -0.1247
 1922SOL    HW2 7208   2.012   3.592   4.099 -0.9001  1.8923 -3.1128
 1923SOL     OW 7209   1.973   3.279   3.457  0.2418  0.2339 -0.2155
 1923SOL    HW1 7210   1.926   3.209   3.411 -2.0924  0.4035  1.6769
 1923SOL    HW2 7211   1.916   3.356   3.447  2.6308  1.9150 -2.0528
 1924SOL     OW 7212   7.920   4.495   4.885  0.2489 -0.6306 -0.6595
 1924SOL    HW1 7213   7.901   4.436   4.812 -1.8365 -0.1041 -0.6246
 1924SOL    HW2 7214   7.867   4.461   4.958 -0.0821  0.5822 -0.3119
 1925SOL     OW 7215   0.675   2.464   5.531  0.0217  0.0160  0.0562
 1925SOL    HW1 7216   0.632   2.485   5.613 -0.2883 -3.5404  0.9758
 1925SOL    HW2 7217   0.605   2.461   5.466 -0.3837 -1.0231  0.5290
 1926SOL     OW 7218   1.058   4.745   5.102 -0.7572 -0.2336 -0.1484
 1926SOL    HW1 7219   1.112   4.733   5.023 -0.5557  1.5161 -0.3222
 1926SOL    HW2 7220   1.051   4.840   5.111  0.1454 -0.3671  2.5811
 1927SOL     OW 7221   2.965   3.118   6.348  0.3304 -0.2697 -0.5015
 1927SOL    HW1 7222   2.910   3.186   6.387 -0.2995 -1.1847  0.2424
 1927SOL    HW2 7223   3.047   3.121   6.398  1.3023  1.5523 -2.0432
 1928SOL     OW 7224   0.768   3.067   4.062 -0.0084 -1.0265  0.3000
 1928SOL    HW1 7225   0.708   3.073   4.136 -0.3317  1.7329 -0.0869
 1928SOL    HW2 7226   0.756   2.977   4.029 -1.5544 -1.5678  2.1494
 1929SOL     OW 7227   0.642   4.138   4.948  0.6550  0.0796 -0.5649
 1929SOL    HW1 7228   0.724   4.109   4.989  0.7947  0.3189 -0.6675
 1929SOL    HW2 7229   0.643   4.098   4.862 -0.3903 -1.7101  0.2022
 1930SOL     OW 7230   0.536   3.654   3.320 -0.4000  0.2075 -0.0055
 1930SOL    HW1 7231   0.560   3.575   3.273  0.1946 -0.0825  0.7731
 1930SOL    HW2 7232   0.446   3.673   3.291  0.6676  1.3441 -3.0257
 1931SOL     OW 7233   2.914   1.782   5.581 -0.1207  0.5844  0.5878
 1931SOL    HW1 7234   2.850   1.757   5.514  1.5905 -0.6471 -0.6960
 1931SOL    HW2 7235   2.868   1.844   5.636 -1.5593  1.9222 -1.9234
 1932SOL     OW 7236   0.081   3.564   5.173 -0.5383 -0.0644 -0.1426
 1932SOL    HW1 7237   0.121   3.537   5.256 -0.5105 -0.7900 -0.3837
 1932SOL    HW2 7238   0.124   3.647   5.152  0.0374 -0.2787  0.1634
 1933SOL     OW 7239   7.360   2.902   3.618 -0.1828 -0.1179 -0.9380
 1933SOL    HW1 7240   7.444   2.918   3.662  0.9031  2.0275 -3.4746
 1933SOL    HW2 7241   7.352   2.807   3.616  0.7389 -0.3484  1.8369
 1934SOL     OW 7242   7.474   2.802   4.084  0.0317 -0.6579 -0.2119
 1934SOL    HW1 7243   7.415   2.872   4.054 -0.3493 -0.7351  0.3384
 1934SOL    HW2 7244   7.425   2.758   4.153  0.2905 -1.4389 -0.5179
 1935SOL     OW 7245   0.612   6.332   3.094  0.1369 -0.2136  0.1675
 1935SOL    HW1 7246   0.592   6.397   3.161 -3.6789 -0.2120 -0.7560
 1935SOL    HW2 7247   0.686   6.369   3.045  2.1634  0.3971  3.3969
 1936SOL     OW 7248   0.312   0.661   6.331 -0.2227  0.5507  0.8358
 1936SOL    HW1 7249   0.339   0.572   6.354 -1.5639  0.0207  0.4593
 1936SOL    HW2 7250   0.219   0.664   6.356  0.1840  2.3505  2.2992
 1937SOL     OW 7251   0.693   1.512   5.100 -0.3561  0.0482  0.6296
 1937SOL    HW1 7252   0.675   1.593   5.149 -1.1689 -1.1710  2.4810
 1937SOL    HW2 7253   0.626   1.510   5.032 -0.2461  0.9822  0.4762
 1938SOL     OW 7254   1.103   2.840   4.271  0.3348  0.5208 -0.1724
 1938SOL    HW1 7255   1.053   2.911   4.311  0.0242  0.9415 -1.2719
 1938SOL    HW2 7256   1.112   2.865   4.179  1.0979 -0.3791 -0.3661
 1939SOL     OW 7257   1.181   2.537   5.237  0.3724 -0.0410  0.0133
 1939SOL    HW1 7258   1.131   2.517   5.317 -1.1757  1.1898 -0.5818
 1939SOL    HW2 7259   1.205   2.629   5.247  0.1996  0.1146 -0.8962
 1940SOL     OW 7260   0.313   2.372   5.124 -0.1762  0.3898  0.1836
 1940SOL    HW1 7261   0.314   2.387   5.029  0.8310  0.5950  0.2123
 1940SOL    HW2 7262   0.270   2.450   5.160  0.4859  0.8726 -0.0350
 1941SOL     OW 7263   0.662   4.109   5.308 -1.2145  0.2379 -0.3934
 1941SOL    HW1 7264   0.573   4.095   5.339 -1.2485  0.5087 -0.3670
 1941SOL    HW2 7265   0.672   4.204   5.306 -0.7479  0.2000  0.1065
 1942SOL     OW 7266   1.460   2.466   2.921 -0.4271  0.4931  0.0889
 1942SOL    HW1 7267   1.456   2.509   2.835 -0.5543 -0.3760 -0.3537
 1942SOL    HW2 7268   1.544   2.493   2.957 -0.2814  0.7085 -0.3965
 1943SOL     OW 7269   6.622   4.211   4.334  0.6488  0.7069  0.4273
 1943SOL    HW1 7270   6.554   4.196   4.399  1.1620  2.3250  1.4102
 1943SOL    HW2 7271   6.651   4.301   4.351  1.5374  0.7887 -1.3608
 1944SOL     OW 7272   2.960   0.072   4.442 -0.0076  0.2309 -0.5376
 1944SOL    HW1 7273   2.907   0.008   4.395  0.0479 -0.3574  0.1851
 1944SOL    HW2 7274   2.910   0.154   4.437 -1.6441 -0.5900  1.1972
 1945SOL     OW 7275   1.585   3.953   3.572 -0.3532 -0.1789 -0.5945
 1945SOL    HW1 7276   1.506   3.898   3.568 -0.4516  0.0252 -1.9861
 1945SOL    HW2 7277   1.617   3.956   3.482 -0.7373  2.6108 -0.7352
 1946SOL     OW 7278   0.226   2.113   5.885 -0.1322  0.1786 -0.4179
 1946SOL    HW1 7279   0.136   2.131   5.859 -0.0477 -0.3841 -1.1238
 1946SOL    HW2 7280   0.276   2.188   5.853 -0.4060  0.7204  0.3829
 1947SOL     OW 7281   1.287   2.360   4.452 -0.0492  0.1585  0.0831
 1947SOL    HW1 7282   1.217   2.324   4.399 -1.5578  0.7379  1.5989
 1947SOL    HW2 7283   1.259   2.449   4.472  0.5209  0.0024  1.7084
 1948SOL     OW 7284   1.554   4.205   5.443 -0.0522  0.3905 -0.0522
 1948SOL    HW1 7285   1.630   4.188   5.387 -0.6885  1.4611 -1.3027
 1948SOL    HW2 7286   1.561   4.141   5.514  0.4160 -1.4765 -1.7031
 1949SOL     OW 7287   2.110   3.222   2.977  0.6401  0.4003  0.3586
 1949SOL    HW1 7288   2.108   3.256   3.067 -0.2597 -0.1090  0.5468
 1949SOL    HW2 7289   2.087   3.298   2.923  0.8167  0.6196  0.5870
 1950SOL     OW 7290   1.255   3.090   3.862 -0.8110 -0.6390 -0.4101
 1950SOL    HW1 7291   1.273   3.160   3.926  0.3529 -0.5909 -0.7604
 1950SOL    HW2 7292   1.190   3.127   3.803 -0.1436  0.2051 -0.6418
 1951SOL     OW 7293   7.569   3.391   4.428  0.6434  0.6074 -0.1390
 1951SOL    HW1 7294   7.645   3.336   4.410 -0.2642 -0.5871 -0.3541
 1951SOL    HW2 7295   7.519   3.343   4.493 -0.8596  0.5295 -1.3157
 1952SOL     OW 7296   2.271   2.319   3.745 -0.2964 -0.1678 -0.7755
 1952SOL    HW1 7297   2.357   2.358   3.728 -1.1463  1.8338 -0.7702
 1952SOL    HW2 7298   2.247   2.350   3.832 -1.4745  0.1853 -1.2090
 1953SOL     OW 7299   1.382   2.537   4.238  0.4096  0.1382  0.4633
 1953SOL    HW1 7300   1.355   2.522   4.329 -0.7673 -1.3979 -0.0788
 1953SOL    HW2 7301   1.463   2.488   4.229  0.4854  0.2263  0.6706
 1954SOL     OW 7302   1.930   2.229   4.554 -0.4021 -0.4468  0.2656
 1954SOL    HW1 7303   2.017   2.219   4.592 -0.1681 -0.1325 -0.1877
 1954SOL    HW2 7304   1.871   2.230   4.630  0.0029 -0.4550  0.5822
 1955SOL     OW 7305   0.901   1.927   5.302  0.6383  0.4641 -0.0345
 1955SOL    HW1 7306   0.823   1.936   5.247 -0.3873 -1.1390  1.0747
 1955SOL    HW2 7307   0.922   1.834   5.299  3.5041  1.0404 -1.5370
 1956SOL     OW 7308   2.936   3.886   4.282 -0.0286  0.8705 -0.2801
 1956SOL    HW1 7309   2.939   3.896   4.377 -0.6220 -3.6587  0.4307
 1956SOL    HW2 7310   3.019   3.844   4.260 -1.7186 -2.4851 -0.8849
 1957SOL     OW 7311   0.453   3.474   5.276  0.6565 -0.6638 -0.5959
 1957SOL    HW1 7312   0.394   3.526   5.330  0.9761 -0.2062 -0.6798
 1957SOL    HW2 7313   0.449   3.386   5.313  1.2079 -0.2699  0.4555
 1958SOL     OW 7314   0.824   2.600   4.434  0.2570  0.3857 -0.2820
 1958SOL    HW1 7315   0.878   2.610   4.356  0.2922  1.2159 -0.1565
 1958SOL    HW2 7316   0.763   2.529   4.413  0.5096  0.3551 -0.9167
 1959SOL     OW 7317   2.162   1.933   3.199 -0.2518 -0.0695 -0.0040
 1959SOL    HW1 7318   2.201   2.020   3.204  0.0970 -0.2836  1.5829
 1959SOL    HW2 7319   2.141   1.921   3.107  1.1268  1.0685 -0.4978
 1960SOL     OW 7320   1.845   3.099   5.890  0.5527 -0.1006 -0.1808
 1960SOL    HW1 7321   1.927   3.061   5.922  0.0987 -0.6115  0.4110
 1960SOL    HW2 7322   1.800   3.025   5.848 -0.3004 -0.2297  0.8965
 1961SOL     OW 7323   0.716   4.260   3.569 -0.4365 -0.2691 -0.0723
 1961SOL    HW1 7324   0.738   4.232   3.480  0.6309 -3.6056  1.0781
 1961SOL    HW2 7325   0.624   4.237   3.580 -0.3857 -0.4932 -0.1134
 1962SOL     OW 7326   6.880   2.303   4.168 -0.1771  0.0258 -0.6993
 1962SOL    HW1 7327   6.810   2.352   4.125  0.0730 -0.2715 -1.4662
 1962SOL    HW2 7328   6.959   2.329   4.121  0.1573 -0.0283 -0.1730
 1963SOL     OW 7329   6.006   3.559   5.058 -0.2810  0.7132  0.0990
 1963SOL    HW1 7330   6.044   3.494   5.117  0.4928  0.0520 -1.0876
 1963SOL    HW2 7331   6.049   3.641   5.081  0.9182  0.2250 -0.3337
 1964SOL     OW 7332   7.422   3.902   4.461  0.1266  0.0900 -0.3405
 1964SOL    HW1 7333   7.513   3.923   4.442  0.7463  0.7212  2.8139
 1964SOL    HW2 7334   7.426   3.842   4.536 -2.0446 -0.3517 -0.4966
 1965SOL     OW 7335   0.811   2.441   3.083 -0.5556  0.1280  1.0030
 1965SOL    HW1 7336   0.785   2.419   2.994 -0.7367  1.5954  0.6663
 1965SOL    HW2 7337   0.898   2.480   3.073 -0.8233  0.8452  1.3774
 1966SOL     OW 7338   7.295   3.534   3.724  0.4103  0.8863 -0.0394
 1966SOL    HW1 7339   7.369   3.506   3.671  0.6507  1.5325 -0.0554
 1966SOL    HW2 7340   7.220   3.529   3.664  0.3848 -0.0326  0.0567
 1967SOL     OW 7341   1.919   3.701   4.495 -0.3190  0.1130  0.3668
 1967SOL    HW1 7342   1.899   3.760   4.567  0.0617 -0.2326  0.7612
 1967SOL    HW2 7343   2.005   3.729   4.464  1.2994 -2.0849  2.5228
 1968SOL     OW 7344   7.787   3.189   4.090  0.3651 -0.0248 -0.2200
 1968SOL    HW1 7345   7.699   3.212   4.120  0.7477  0.2369  0.7394
 1968SOL    HW2 7346   7.787   3.093   4.090  0.3518 -0.0400  0.6722
 1969SOL     OW 7347   1.021   2.588   4.230  0.0024  0.7843 -0.3185
 1969SOL    HW1 7348   1.054   2.579   4.140 -1.1977 -0.4543 -0.6607
 1969SOL    HW2 7349   1.058   2.671   4.261 -0.1603  1.6076 -2.2097
 1970SOL     OW 7350   7.522   3.220   4.132 -0.2131 -0.2399  0.2721
 1970SOL    HW1 7351   7.502   3.143   4.078  0.6490 -0.0540 -0.3305
 1970SOL    HW2 7352   7.481   3.202   4.216 -0.7618 -0.9698 -0.1455
 1971SOL     OW 7353   1.514   3.620   4.524 -0.2035  0.2587  0.2049
 1971SOL    HW1 7354   1.571   3.696   4.508  0.1802  0.2620  1.5106
 1971SOL    HW2 7355   1.449   3.625   4.454  1.4066  0.2268 -1.3708
 1972SOL     OW 7356   1.826   1.765   5.929  0.1379  0.7942 -0.1891
 1972SOL    HW1 7357   1.907   1.718   5.908 -0.3358 -0.2200  0.1545
 1972SOL    HW2 7358   1.854   1.853   5.952  1.1348  0.4743 -0.1431
 1973SOL     OW 7359   2.330   1.548   4.411 -0.3737  0.0423  0.5676
 1973SOL    HW1 7360   2.386   1.506   4.345 -0.8186  2.0973 -1.2389
 1973SOL    HW2 7361   2.386   1.557   4.488  0.7090 -0.9522 -0.0715
 1974SOL     OW 7362   0.807   3.681   3.259  0.2405 -0.1228 -0.1096
 1974SOL    HW1 7363   0.851   3.699   3.343 -0.0794 -1.7881  0.4432
 1974SOL    HW2 7364   0.714   3.690   3.279  0.1878  0.0961 -0.4523
 1975SOL     OW 7365   7.969   3.519   4.737  0.5164  0.0177  0.1487
 1975SOL    HW1 7366   8.016   3.444   4.773 -0.5489  0.3045  2.3128
 1975SOL    HW2 7367   7.994   3.521   4.645  2.2302 -1.7000  0.5064
 1976SOL     OW 7368   2.319   3.703   3.411 -0.4554  0.1881  0.8244
 1976SOL    HW1 7369   2.403   3.736   3.442  0.9407 -0.9285 -1.4276
 1976SOL    HW2 7370   2.312   3.615   3.448 -0.1512 -0.0665  0.2990
 1977SOL     OW 7371   7.838   2.415   4.552 -0.1593 -0.1457 -0.0983
 1977SOL    HW1 7372   7.934   2.420   4.554 -0.1045 -1.0760 -0.1882
 1977SOL    HW2 7373   7.815   2.433   4.461 -0.1060  0.6118  0.0344
 1978SOL     OW 7374   0.070   4.138   3.586  0.3626  0.3286 -0.0062
 1978SOL    HW1 7375   0.009   4.204   3.552 -0.3653 -1.1844 -1.8439
 1978SOL    HW2 7376   0.117   4.182   3.657 -1.3055  2.2489 -0.0111
 1979SOL     OW 7377   0.941   4.554   6.188 -0.2716  0.2316 -0.4237
 1979SOL    HW1 7378   1.023   4.587   6.151  1.4360 -1.0913  1.8703
 1979SOL    HW2 7379   0.933   4.599   6.273  0.1563 -2.3320  1.0825
 1980SOL     OW 7380   3.585   0.791   6.007 -0.1896  0.3385  0.1693
 1980SOL    HW1 7381   3.607   0.778   6.100 -1.7812 -1.3769  0.3713
 1980SOL    HW2 7382   3.550   0.706   5.979  1.0887  0.5355 -2.2842
 1981SOL     OW 7383   0.101   0.853   4.296 -0.1328 -0.0347 -0.4810
 1981SOL    HW1 7384   0.117   0.898   4.213  1.4899  1.0639  0.3543
 1981SOL    HW2 7385   0.159   0.777   4.294  0.7543  0.6063  0.0695
 1982SOL     OW 7386   2.406   1.648   3.357 -0.4997 -0.1811  0.2463
 1982SOL    HW1 7387   2.486   1.697   3.338  0.0140 -1.2934 -0.6443
 1982SOL    HW2 7388   2.335   1.706   3.331  0.0866  0.0837 -0.8136
 1983SOL     OW 7389   0.460   2.780   3.044  0.4703  0.0215  0.5989
 1983SOL    HW1 7390   0.549   2.804   3.067  0.8429 -0.5692 -0.1758
 1983SOL    HW2 7391   0.421   2.749   3.126  0.4973  1.6099  1.2642
 1984SOL     OW 7392   0.069   3.950   5.969 -1.0645 -0.5863 -0.1545
 1984SOL    HW1 7393   0.143   3.975   6.024 -1.4843  1.9261 -0.6248
 1984SOL    HW2 7394   0.082   3.856   5.953  2.5211 -0.0884 -0.9639
 1985SOL     OW 7395   1.601   2.253   5.301 -0.6979 -0.0760 -0.1356
 1985SOL    HW1 7396   1.515   2.256   5.342 -0.5461  0.5047  0.1388
 1985SOL    HW2 7397   1.628   2.161   5.311 -0.5411  0.1004  1.3242
 1986SOL     OW 7398   1.583   2.375   4.182 -0.0871 -0.2563  0.0561
 1986SOL    HW1 7399   1.590   2.354   4.275  1.6554 -0.8469 -0.1787
 1986SOL    HW2 7400   1.665   2.345   4.143 -0.3761  0.8152 -1.5227
 1987SOL     OW 7401   1.940   1.624   5.163 -0.1481 -0.2105  0.3449
 1987SOL    HW1 7402   1.903   1.556   5.107 -0.8957  0.7078 -0.3213
 1987SOL    HW2 7403   1.885   1.623   5.241 -0.8418  0.3227 -0.1207
 1988SOL     OW 7404   2.125   3.645   2.283 -0.1703  0.2068  0.3626
 1988SOL    HW1 7405   2.079   3.596   2.215  0.3591 -0.3500  0.3982
 1988SOL    HW2 7406   2.131   3.584   2.357 -0.9528  0.8905  0.9944
 1989SOL     OW 7407   1.180   4.369   5.590  0.6461  0.7699 -0.6752
 1989SOL    HW1 7408   1.257   4.313   5.602  0.3049  0.6986  1.6992
 1989SOL    HW2 7409   1.185   4.432   5.662 -1.5091  0.7613 -0.4467
 1990SOL     OW 7410   7.698   4.893   3.115 -0.3463  0.3083 -0.0227
 1990SOL    HW1 7411   7.670   4.972   3.069 -1.8514 -0.7011 -0.8953
 1990SOL    HW2 7412   7.692   4.823   3.049 -1.2931 -0.9454  1.3430
 1991SOL     OW 7413   0.167   3.219   3.237  0.1163 -0.5184  0.0451
 1991SOL    HW1 7414   0.246   3.252   3.194 -0.8764  0.1378 -1.3283
 1991SOL    HW2 7415   0.153   3.278   3.311  0.3972 -0.0769 -0.2503
 1992SOL     OW 7416   0.688   1.650   5.452  0.6418  0.6193  0.2735
 1992SOL    HW1 7417   0.673   1.688   5.365  0.0473  0.1846  0.1799
 1992SOL    HW2 7418   0.769   1.692   5.483  0.3824  1.4309 -0.1169
 1993SOL     OW 7419   2.210   0.603   5.111 -0.1324 -0.1640 -0.0320
 1993SOL    HW1 7420   2.156   0.595   5.190 -0.8199 -1.8938 -0.6357
 1993SOL    HW2 7421   2.292   0.559   5.134 -0.3372 -0.6784 -0.2702
 1994SOL     OW 7422   6.878   3.310   3.606 -0.2758  0.1018  0.4444
 1994SOL    HW1 7423   6.919   3.282   3.688  1.1425  1.5542  0.2932
 1994SOL    HW2 7424   6.784   3.306   3.623 -0.0459 -1.0457  1.6233
 1995SOL     OW 7425   1.177   3.521   3.910 -0.0946 -0.2762 -0.1052
 1995SOL    HW1 7426   1.153   3.507   3.819  0.7607 -0.3473 -0.3348
 1995SOL    HW2 7427   1.095   3.544   3.954 -0.3822  0.6368 -1.0633
 1996SOL     OW 7428   7.375   3.798   3.777 -0.7072 -0.1017 -0.0901
 1996SOL    HW1 7429   7.305   3.861   3.759 -1.8737 -1.2494  0.3102
 1996SOL    HW2 7430   7.338   3.714   3.751 -0.4349 -1.0810  2.4353
 1997SOL     OW 7431   0.427   2.395   2.903  0.6355 -0.2844  0.8779
 1997SOL    HW1 7432   0.513   2.430   2.881  1.7966 -2.3281  1.8376
 1997SOL    HW2 7433   0.439   2.353   2.988 -1.0600 -1.4629  0.5970
 1998SOL     OW 7434   7.236   3.753   4.219 -0.5601  0.2689  0.0389
 1998SOL    HW1 7435   7.244   3.694   4.144  1.5842  1.2606 -0.5814
 1998SOL    HW2 7436   7.254   3.698   4.295 -1.4416 -0.4598 -0.2636
 1999SOL     OW 7437   2.270   1.177   5.603 -1.0084 -0.4072 -0.4287
 1999SOL    HW1 7438   2.240   1.169   5.512 -0.6283 -1.4735 -0.4682
 1999SOL    HW2 7439   2.341   1.241   5.599 -2.4617  1.2821 -0.5088
 2000SOL     OW 7440   7.525   3.316   4.770 -0.2915  0.3774  0.0280
 2000SOL    HW1 7441   7.609   3.326   4.814  0.4177 -0.5173 -1.0769
 2000SOL    HW2 7442   7.472   3.388   4.804  0.2610 -0.1553  2.1948
 2001SOL     OW 7443   3.986   1.641   4.786  0.0053 -0.0992 -0.1568
 2001SOL    HW1 7444   3.926   1.700   4.831 -0.3460  1.0480 -2.0421
 2001SOL    HW2 7445   4.072   1.681   4.798 -0.2230  0.8060 -1.3658
 2002SOL     OW 7446   7.539   4.341   6.752  0.1116 -0.0746  0.5122
 2002SOL    HW1 7447   7.548   4.286   6.830  1.3618 -0.1078  0.3590
 2002SOL    HW2 7448   7.452   4.381   6.761 -0.8852 -2.1420  0.5640
 2003SOL     OW 7449   1.907   1.275   5.243 -0.2125 -0.8103  0.0576
 2003SOL    HW1 7450   1.880   1.307   5.157 -1.3722 -0.6763  0.4518
 2003SOL    HW2 7451   1.825   1.252   5.286  0.0806  1.5943  2.1202
 2004SOL     OW 7452   1.184   4.536   3.963  0.3368 -0.0692 -0.7995
 2004SOL    HW1 7453   1.249   4.503   4.024  1.4352  1.8060 -0.8729
 2004SOL    HW2 7454   1.106   4.483   3.979  1.2740 -1.0533  0.6864
 2005SOL     OW 7455   1.215   1.293   4.072 -0.0679  0.3815  0.4103
 2005SOL    HW1 7456   1.233   1.371   4.020 -0.4552  1.3487  1.6865
 2005SOL    HW2 7457   1.229   1.321   4.162  0.2600 -1.1664  0.8687
 2006SOL     OW 7458   6.256   5.004   3.473  0.5247 -0.0384  0.4371
 2006SOL    HW1 7459   6.297   4.985   3.389 -0.8595 -0.6025 -0.1475
 2006SOL    HW2 7460   6.240   5.098   3.471  0.9988  0.0426  0.3124
 2007SOL     OW 7461   1.274   3.640   3.589  0.0740  0.2014  0.5376
 2007SOL    HW1 7462   1.289   3.735   3.585 -2.3135  0.7260  1.7673
 2007SOL    HW2 7463   1.356   3.604   3.623  0.9647  1.8543  0.2430
 2008SOL     OW 7464   7.649   1.755   3.311  0.1731 -0.3094 -0.1204
 2008SOL    HW1 7465   7.645   1.807   3.391  0.4315 -1.0372  0.3663
 2008SOL    HW2 7466   7.635   1.819   3.241 -0.6433  0.2478  0.5247
 2009SOL     OW 7467   0.528   5.135   5.068 -0.3961 -0.3554 -0.4620
 2009SOL    HW1 7468   0.532   5.229   5.053  0.2395 -0.3454 -0.2469
 2009SOL    HW2 7469   0.435   5.113   5.059 -0.6307  0.3857  0.0454
 2010SOL     OW 7470   2.088   3.712   5.724 -0.4886  0.1952 -0.2394
 2010SOL    HW1 7471   2.154   3.649   5.753  1.5340  2.5245  0.6602
 2010SOL    HW2 7472   2.033   3.727   5.800  1.0127  1.7691  0.6074
 2011SOL     OW 7473   7.792   2.699   2.542  0.0085  0.3848  0.2678
 2011SOL    HW1 7474   7.851   2.638   2.587  1.7334  2.0661  0.3619
 2011SOL    HW2 7475   7.754   2.752   2.612  0.0341  0.7349  0.0189
 2012SOL     OW 7476   0.925   4.732   4.779  0.1407 -0.0011 -0.2281
 2012SOL    HW1 7477   0.869   4.787   4.834 -0.5981 -1.9216  1.0053
 2012SOL    HW2 7478   1.014   4.750   4.810 -0.0354  0.8114 -0.1652
 2013SOL     OW 7479   2.131   1.950   5.320  0.9873  0.0120  0.8688
 2013SOL    HW1 7480   2.143   1.960   5.414 -0.2198 -0.0703  1.0457
 2013SOL    HW2 7481   2.197   1.886   5.293  0.2956 -1.1874  1.9342
 2014SOL     OW 7482   6.869   4.972   5.113 -0.8222  0.4200  0.0199
 2014SOL    HW1 7483   6.827   5.058   5.115 -1.2721  0.1974  1.3758
 2014SOL    HW2 7484   6.826   4.926   5.041 -1.5355  0.8653  0.1538
 2015SOL     OW 7485   0.543   3.297   6.511 -0.1927  0.6289  0.2627
 2015SOL    HW1 7486   0.460   3.261   6.480 -0.1391  0.3910  0.3923
 2015SOL    HW2 7487   0.590   3.322   6.431  0.3388 -0.8572  0.0865
 2016SOL     OW 7488   0.509   2.637   3.887 -0.1607  0.0187  0.3092
 2016SOL    HW1 7489   0.540   2.559   3.840  0.1122  0.7279 -0.7309
 2016SOL    HW2 7490   0.414   2.637   3.873 -0.2763 -0.5552  1.0077
 2017SOL     OW 7491   0.021   3.638   2.980 -0.4810 -0.7002 -0.0908
 2017SOL    HW1 7492   0.004   3.661   3.071  1.5533 -1.2612  0.4868
 2017SOL    HW2 7493   0.085   3.567   2.985 -1.3073 -1.6415 -1.9529
 2018SOL     OW 7494   2.069   3.306   5.175 -0.1973  0.1685  0.4182
 2018SOL    HW1 7495   2.118   3.346   5.103 -0.8920 -1.0739 -0.7837
 2018SOL    HW2 7496   2.125   3.234   5.205 -0.5899 -0.2793  0.0819
 2019SOL     OW 7497   1.839   2.371   5.425 -0.0455  0.2127  0.0049
 2019SOL    HW1 7498   1.751   2.335   5.412 -1.0067  2.1384  0.7106
 2019SOL    HW2 7499   1.898   2.302   5.396 -1.7968 -0.9981 -0.8651
 2020SOL     OW 7500   2.575   1.232   3.447 -0.3546  0.2354  0.3402
 2020SOL    HW1 7501   2.507   1.242   3.380 -1.4808 -1.2757  1.2077
 2020SOL    HW2 7502   2.589   1.321   3.480 -0.2630  0.9079 -1.3906
 2021SOL     OW 7503   0.118   3.292   3.837 -0.0493 -0.7720 -0.5149
 2021SOL    HW1 7504   0.029   3.324   3.849  0.3367  0.0705  0.2987
 2021SOL    HW2 7505   0.124   3.214   3.892 -0.0075 -0.2711  0.2017
 2022SOL     OW 7506   1.612   2.012   3.016 -0.8401 -0.5172 -0.3270
 2022SOL    HW1 7507   1.644   1.945   2.956 -1.7399 -0.7314 -0.5860
 2022SOL    HW2 7508   1.562   2.072   2.960 -0.8671 -0.1808  0.0575
 2023SOL     OW 7509   0.586   4.182   5.696  0.5564  0.2500  0.1598
 2023SOL    HW1 7510   0.528   4.202   5.770 -1.8593 -1.2028 -1.2002
 2023SOL    HW2 7511   0.553   4.237   5.625  0.4559 -0.9993 -0.7909
 2024SOL     OW 7512   7.543   3.084   2.583 -0.4125  0.0706  0.4383
 2024SOL    HW1 7513   7.592   3.026   2.525  1.7270  0.4759  1.7229
 2024SOL    HW2 7514   7.583   3.071   2.670 -2.0795  1.0409  1.4113
 2025SOL     OW 7515   1.954   3.570   4.941 -0.5189  0.1014  0.3109
 2025SOL    HW1 7516   1.912   3.521   5.011 -2.0961 -0.5886 -1.0321
 2025SOL    HW2 7517   1.881   3.609   4.892  0.3880 -0.8216 -1.9103
 2026SOL     OW 7518   6.480   4.124   3.866 -0.0961 -0.4673  0.0289
 2026SOL    HW1 7519   6.436   4.173   3.936  0.0061  0.7537 -0.7311
 2026SOL    HW2 7520   6.409   4.084   3.816 -0.2660  0.1587 -0.2364
 2027SOL     OW 7521   1.734   2.636   5.447  0.2132 -0.1123  0.6875
 2027SOL    HW1 7522   1.782   2.556   5.471  0.7796  0.0545  0.1476
 2027SOL    HW2 7523   1.782   2.706   5.491  0.2384  0.0157  0.4591
 2028SOL     OW 7524   1.611   2.709   4.755 -0.2346  0.9796  0.1389
 2028SOL    HW1 7525   1.543   2.742   4.697  0.3330  1.4378 -0.2585
 2028SOL    HW2 7526   1.634   2.783   4.810  0.8465  1.1801 -0.5735
 2029SOL     OW 7527   1.177   0.310   4.746 -0.2097 -0.0884 -0.0195
 2029SOL    HW1 7528   1.177   0.241   4.812 -1.4105  0.5076  0.6557
 2029SOL    HW2 7529   1.204   0.267   4.666  1.3387 -0.8291  0.8576
 2030SOL     OW 7530   7.221   4.114   4.296  0.1425  0.5135  0.3326
 2030SOL    HW1 7531   7.296   4.138   4.350  1.0444  2.3456 -1.5783
 2030SOL    HW2 7532   7.171   4.195   4.288  0.3648  0.4655 -2.0219
 2031SOL     OW 7533   2.833   1.916   6.002  0.3767 -0.3092 -0.0509
 2031SOL    HW1 7534   2.899   1.953   6.061  1.8525 -0.4657 -1.5083
 2031SOL    HW2 7535   2.798   1.841   6.049  0.5713  0.3093  1.1250
 2032SOL     OW 7536   6.993   2.882   3.757  0.0302  0.4269 -0.2385
 2032SOL    HW1 7537   6.979   2.864   3.850 -0.3353  0.7671 -0.2266
 2032SOL    HW2 7538   7.071   2.831   3.734 -0.6080 -0.6691 -0.0453
 2033SOL     OW 7539   7.335   3.519   4.778 -0.3332  0.1661 -0.3335
 2033SOL    HW1 7540   7.301   3.582   4.842 -0.7813  0.3983 -0.7883
 2033SOL    HW2 7541   7.390   3.571   4.720  0.7684 -0.2018  0.3639
 2034SOL     OW 7542   0.612   4.901   4.678 -0.0864 -0.3418 -0.0933
 2034SOL    HW1 7543   0.553   4.830   4.705 -0.1849 -0.1044  0.3242
 2034SOL    HW2 7544   0.553   4.969   4.644  0.0514 -0.7716 -1.2599
 2035SOL     OW 7545   7.759   3.289   2.635  0.7810  0.3593 -0.4367
 2035SOL    HW1 7546   7.815   3.349   2.683  1.0619  0.4233 -0.8460
 2035SOL    HW2 7547   7.708   3.244   2.703  0.7657  0.8598 -0.1162
 2036SOL     OW 7548   1.160   3.224   7.202 -0.0802 -0.6051 -0.3840
 2036SOL    HW1 7549   1.160   3.281   7.125 -2.4199  1.2251  0.8280
 2036SOL    HW2 7550   1.233   3.164   7.188 -0.1422 -0.0805 -3.7972
 2037SOL     OW 7551   0.231   2.508   3.239 -0.0045 -0.2372  0.8365
 2037SOL    HW1 7552   0.291   2.505   3.314  0.6712 -0.4631  0.2947
 2037SOL    HW2 7553   0.275   2.458   3.171 -0.7614 -0.3047  0.3868
 2038SOL     OW 7554   1.265   2.196   4.162  0.3423  0.1080 -0.1793
 2038SOL    HW1 7555   1.310   2.280   4.149  1.3441 -0.1087  1.4873
 2038SOL    HW2 7556   1.185   2.219   4.209  0.9839  0.0941  0.9571
 2039SOL     OW 7557   7.371   3.099   4.346 -0.1993 -0.0565  0.5505
 2039SOL    HW1 7558   7.374   3.121   4.439  0.6522  0.7293  0.3497
 2039SOL    HW2 7559   7.347   3.006   4.344 -0.1140 -0.1118  1.5521
 2040SOL     OW 7560   2.288   3.528   5.849  0.5582 -0.1010 -0.3062
 2040SOL    HW1 7561   2.269   3.474   5.772  1.2431 -0.4891 -0.2167
 2040SOL    HW2 7562   2.244   3.483   5.921 -0.1001  0.2738 -0.4774
 2041SOL     OW 7563   6.263   3.408   5.953  0.4307 -0.3385  0.3527
 2041SOL    HW1 7564   6.357   3.394   5.946  0.4351 -0.9313  1.2774
 2041SOL    HW2 7565   6.231   3.413   5.863  1.4055  0.3515  0.0341
 2042SOL     OW 7566   1.340   2.706   7.337  0.3992  0.0961 -0.1706
 2042SOL    HW1 7567   1.289   2.785   7.355  0.5298 -0.1772  1.6456
 2042SOL    HW2 7568   1.411   2.709   7.401  1.5829 -0.4865 -1.4155
 2043SOL     OW 7569   0.444   5.719   4.756  0.1196 -0.0357 -0.3284
 2043SOL    HW1 7570   0.527   5.740   4.800  0.4041 -0.9771 -0.3823
 2043SOL    HW2 7571   0.447   5.769   4.674  0.9095 -0.5020 -0.5989
 2044SOL     OW 7572   1.911   0.195   4.586 -0.2600 -0.2502  0.1655
 2044SOL    HW1 7573   1.899   0.107   4.549 -1.5923  0.6196 -1.6865
 2044SOL    HW2 7574   1.987   0.230   4.540 -0.5752  0.0369 -0.1516
 2045SOL     OW 7575   6.698   3.608   3.695 -0.1164 -0.3089 -0.4630
 2045SOL    HW1 7576   6.638   3.544   3.656 -0.4608 -0.8475  0.9153
 2045SOL    HW2 7577   6.761   3.627   3.625 -0.0337 -2.1102 -0.9146
 2046SOL     OW 7578   7.128   2.377   3.797  0.2210 -0.3760 -0.5420
 2046SOL    HW1 7579   7.200   2.441   3.798  0.1037 -0.2128  1.5711
 2046SOL    HW2 7580   7.122   2.350   3.705  1.1812  1.6127 -1.2541
 2047SOL     OW 7581   2.949   1.533   5.118  0.3414  0.6795 -0.7131
 2047SOL    HW1 7582   2.952   1.502   5.209  2.0900  1.9128 -0.2966
 2047SOL    HW2 7583   2.855   1.544   5.100 -0.1022 -0.6894  0.5285
 2048SOL     OW 7584   1.318   2.345   5.084  0.2757  0.5506 -0.0348
 2048SOL    HW1 7585   1.277   2.410   5.141 -0.1433  0.1377  0.1433
 2048SOL    HW2 7586   1.405   2.380   5.066  0.5749  0.5030  1.2146
 2049SOL     OW 7587   0.577   3.083   3.287  0.0128  0.4964  0.0201
 2049SOL    HW1 7588   0.497   3.037   3.313 -0.7897  1.7159 -0.1806
 2049SOL    HW2 7589   0.546   3.167   3.254  1.3622  0.8296 -0.4584
 2050SOL     OW 7590   0.233   5.319   3.846 -0.1547  0.6855  0.0099
 2050SOL    HW1 7591   0.176   5.258   3.799 -1.1120  1.1574  0.5388
 2050SOL    HW2 7592   0.220   5.299   3.938  0.1832  1.1166  0.1545
 2051SOL     OW 7593   1.138   3.266   4.527 -0.4033  0.3367 -0.5245
 2051SOL    HW1 7594   1.230   3.292   4.516  0.2141 -1.3721  0.1422
 2051SOL    HW2 7595   1.138   3.213   4.607 -2.3331  1.7406  0.4628
 2052SOL     OW 7596   7.583   3.049   3.085 -0.1614  0.1773  0.1198
 2052SOL    HW1 7597   7.573   2.969   3.033  0.0316 -0.5576  1.1792
 2052SOL    HW2 7598   7.494   3.084   3.093 -0.2158  0.1857 -0.5285
 2053SOL     OW 7599   2.397   1.851   5.964 -0.7728  0.3591 -0.1299
 2053SOL    HW1 7600   2.339   1.925   5.946 -0.0802  1.2136  1.0100
 2053SOL    HW2 7601   2.444   1.877   6.044  0.2765 -0.8361 -0.3409
 2054SOL     OW 7602   6.728   4.000   4.717  0.1071 -0.8665  0.2041
 2054SOL    HW1 7603   6.788   4.007   4.643  0.3646 -1.6199  0.3322
 2054SOL    HW2 7604   6.784   3.999   4.794 -0.1188 -0.7970  0.3703
 2055SOL     OW 7605   6.806   3.989   3.119 -0.1720 -0.3586  0.4928
 2055SOL    HW1 7606   6.788   3.925   3.189 -0.1760 -0.7031  0.1782
 2055SOL    HW2 7607   6.893   3.965   3.087  0.6830  0.9985  1.6731
 2056SOL     OW 7608   7.474   3.748   4.081  0.3840 -0.2216 -0.0338
 2056SOL    HW1 7609   7.441   3.763   3.993 -2.6522 -0.7342  0.9135
 2056SOL    HW2 7610   7.525   3.667   4.074  0.8773  0.1671 -1.4147
 2057SOL     OW 7611   2.027   2.412   2.919 -0.1312  0.0849  0.3687
 2057SOL    HW1 7612   2.014   2.323   2.951 -1.9758 -0.7015 -2.2429
 2057SOL    HW2 7613   2.097   2.404   2.853 -0.9101  0.3613 -0.5096
 2058SOL     OW 7614   0.558   3.380   4.073  0.0233 -0.2023  0.4700
 2058SOL    HW1 7615   0.491   3.344   4.015 -0.5854  0.7551  0.5530
 2058SOL    HW2 7616   0.510   3.403   4.152  0.3464  0.9938  0.3287
 2059SOL     OW 7617   1.826   2.343   5.725 -0.5861  0.0256 -0.2915
 2059SOL    HW1 7618   1.814   2.373   5.634 -3.7347  0.5199  0.1661
 2059SOL    HW2 7619   1.821   2.423   5.777 -1.6119 -0.5268  0.4804
 2060SOL     OW 7620   7.138   3.376   3.533  0.5459  0.3803  0.0042
 2060SOL    HW1 7621   7.177   3.293   3.558  0.0253 -0.0493 -0.5857
 2060SOL    HW2 7622   7.045   3.366   3.554 -0.0542 -0.2410 -2.5884
 2061SOL     OW 7623   1.071   0.865   5.252  0.1227  0.4142  0.0159
 2061SOL    HW1 7624   0.979   0.847   5.270  0.0685  0.0161 -0.6211
 2061SOL    HW2 7625   1.072   0.953   5.215 -0.2131 -0.2317 -1.5846
 2062SOL     OW 7626   2.782   7.633   5.854 -0.2428  0.0426  0.1036
 2062SOL    HW1 7627   2.752   7.722   5.833 -0.9301  0.1707  1.4927
 2062SOL    HW2 7628   2.701   7.581   5.855 -0.2096 -0.0252  1.9379
 2063SOL     OW 7629   1.104   1.879   2.694  0.0111 -0.1393 -0.8751
 2063SOL    HW1 7630   1.096   1.786   2.711  0.5169 -0.5610 -2.7065
 2063SOL    HW2 7631   1.185   1.905   2.740 -1.5182  0.0732  1.9282
 2064SOL     OW 7632   6.272   4.272   4.319  0.0198  0.4480  0.4453
 2064SOL    HW1 7633   6.181   4.286   4.345  0.1474 -0.3503  1.3680
 2064SOL    HW2 7634   6.322   4.282   4.400  0.9553  2.3782 -0.2829
 2065SOL     OW 7635   3.484   1.302   3.905  0.3601  0.4847 -0.7255
 2065SOL    HW1 7636   3.422   1.229   3.906  0.8984 -0.0091 -1.6331
 2065SOL    HW2 7637   3.433   1.377   3.875 -0.9854  1.3097  3.0542
 2066SOL     OW 7638   1.111   1.682   4.824 -0.2538  0.5090 -0.4717
 2066SOL    HW1 7639   1.097   1.721   4.738 -0.6814 -0.6114 -0.9327
 2066SOL    HW2 7640   1.073   1.594   4.817 -0.7754  0.5752  1.0201
 2067SOL     OW 7641   1.872   3.018   4.558 -0.6465 -0.6269  0.2522
 2067SOL    HW1 7642   1.780   3.043   4.558 -0.1936  1.1748 -0.6748
 2067SOL    HW2 7643   1.900   3.026   4.649 -1.6419 -2.2842  0.7492
 2068SOL     OW 7644   1.091   4.087   4.461 -0.1580 -0.1014  0.6949
 2068SOL    HW1 7645   1.150   4.125   4.527 -1.3497 -0.7544  2.1880
 2068SOL    HW2 7646   1.025   4.154   4.446 -0.0757 -0.0820  0.4230
 2069SOL     OW 7647   7.544   3.442   5.780 -0.1802  0.3294  0.4027
 2069SOL    HW1 7648   7.453   3.470   5.789  0.0314  1.0942  0.3017
 2069SOL    HW2 7649   7.588   3.476   5.858  0.1030  0.3400  0.2415
 2070SOL     OW 7650   1.574   1.422   6.519  0.0177 -0.6342  0.6081
 2070SOL    HW1 7651   1.498   1.364   6.511 -0.6248 -0.0073  1.8997
 2070SOL    HW2 7652   1.580   1.466   6.434 -1.8709  0.2777  0.9104
 2071SOL     OW 7653   1.895   1.578   6.948 -0.0515 -0.0819  0.7286
 2071SOL    HW1 7654   1.862   1.665   6.969 -1.6362 -0.7360  1.1062
 2071SOL    HW2 7655   1.872   1.525   7.024 -2.0132 -1.5363 -0.8049
 2072SOL     OW 7656   2.053   3.259   7.087  0.0506 -0.7999  0.4825
 2072SOL    HW1 7657   2.113   3.274   7.159 -0.7270  0.2904  0.9230
 2072SOL    HW2 7658   2.080   3.322   7.020 -2.4493  1.9826  1.8635
 2073SOL     OW 7659   1.681   5.411   4.835 -0.2340 -0.0347  0.1392
 2073SOL    HW1 7660   1.611   5.344   4.834  1.0018 -1.4090 -1.9072
 2073SOL    HW2 7661   1.762   5.360   4.828  0.9501  1.5896  1.4182
 2074SOL     OW 7662   2.505   2.201   4.121  0.3432 -0.1855 -0.0687
 2074SOL    HW1 7663   2.582   2.193   4.065  1.6893 -0.3868  1.7386
 2074SOL    HW2 7664   2.526   2.273   4.181 -1.7974  1.2408 -0.9212
 2075SOL     OW 7665   7.228   3.458   7.040 -0.1289  0.6219 -0.1327
 2075SOL    HW1 7666   7.316   3.475   7.076  0.1161 -0.2686 -0.2756
 2075SOL    HW2 7667   7.226   3.507   6.958  0.5914 -0.0833 -0.5891
 2076SOL     OW 7668   0.082   1.980   6.792 -0.6713 -0.0638 -0.3426
 2076SOL    HW1 7669   0.013   1.989   6.726 -0.8767  0.1874 -0.0960
 2076SOL    HW2 7670   0.073   2.059   6.846  0.3723  0.4119 -0.8375
 2077SOL     OW 7671   1.333   6.880   5.571 -0.6112 -0.4461  0.0692
 2077SOL    HW1 7672   1.423   6.912   5.571 -0.5281 -0.5538  2.5905
 2077SOL    HW2 7673   1.342   6.784   5.568 -0.7006 -0.4420 -0.6349
 2078SOL     OW 7674   7.313   2.479   7.113  0.6111 -0.3433 -0.0562
 2078SOL    HW1 7675   7.226   2.505   7.143  0.4719 -0.5810 -0.2489
 2078SOL    HW2 7676   7.299   2.394   7.071  1.0139 -0.5977  0.3178
 2079SOL     OW 7677   0.892   1.210   7.098  0.1954  0.2291 -0.3401
 2079SOL    HW1 7678   0.937   1.196   7.181  1.0290 -0.0308 -0.8253
 2079SOL    HW2 7679   0.812   1.157   7.104  0.5255 -0.2285  0.0723
 2080SOL     OW 7680   2.726   3.844   6.906 -0.2483  0.4614 -0.8575
 2080SOL    HW1 7681   2.780   3.820   6.981 -0.6054 -2.8568 -1.5173
 2080SOL    HW2 7682   2.782   3.902   6.855  1.3731 -0.0542  0.2176
 2081SOL     OW 7683   0.342   0.752   7.438  0.6338 -0.2421 -0.4009
 2081SOL    HW1 7684   0.353   0.675   7.383 -1.6781 -0.4205 -0.7120
 2081SOL    HW2 7685   0.314   0.717   7.523  1.3547  0.1749  0.0146
 2082SOL     OW 7686   2.742   0.911   8.105  0.3205  0.2620  0.3100
 2082SOL    HW1 7687   2.718   0.888   8.195 -0.4825 -1.5982 -0.3148
 2082SOL    HW2 7688   2.802   0.984   8.114  1.0752 -0.5385  2.4276
 2083SOL     OW 7689   1.608   3.216   4.885 -0.1153 -0.1872 -0.4404
 2083SOL    HW1 7690   1.609   3.287   4.822  1.6018  0.6957  0.5126
 2083SOL    HW2 7691   1.601   3.259   4.970 -0.1959 -1.2173  0.0914
 2084SOL     OW 7692   1.814   3.981   7.805 -0.2246  0.1076 -0.1040
 2084SOL    HW1 7693   1.729   3.950   7.773 -0.2756 -0.3998  0.5201
 2084SOL    HW2 7694   1.874   3.910   7.784 -0.1099  0.1095  0.2254
 2085SOL     OW 7695   1.026   5.488   5.434  0.5292  0.0854 -0.4771
 2085SOL    HW1 7696   1.068   5.531   5.509  0.7353  0.4877 -0.8184
 2085SOL    HW2 7697   0.933   5.486   5.457  0.5256  0.6710 -0.4366
 2086SOL     OW 7698   1.915   2.305   7.762 -0.2489 -0.2566 -0.2588
 2086SOL    HW1 7699   1.990   2.361   7.782  1.2449 -2.0876 -0.4527
 2086SOL    HW2 7700   1.903   2.252   7.841  0.2548 -1.6643 -1.0966
 2087SOL     OW 7701   6.486   3.616   8.060 -0.0466  0.2431  0.1950
 2087SOL    HW1 7702   6.535   3.542   8.027 -0.5406  0.1252 -0.3029
 2087SOL    HW2 7703   6.401   3.610   8.015  0.0312  1.3030 -0.1331
 2088SOL     OW 7704   2.149   1.020   5.773 -0.1001  0.1255  0.0097
 2088SOL    HW1 7705   2.218   1.006   5.838  1.6005  0.4569 -1.6612
 2088SOL    HW2 7706   2.189   1.075   5.706 -1.8083 -0.1712 -1.3240
 2089SOL     OW 7707   1.648   0.187   5.784 -0.3413 -0.0796 -0.0988
 2089SOL    HW1 7708   1.680   0.275   5.805 -0.5733  0.3025 -1.2564
 2089SOL    HW2 7709   1.728   0.136   5.769 -0.2017 -0.1137  0.7014
 2090SOL     OW 7710   1.366   1.166   6.639 -0.5343  0.2413  0.3791
 2090SOL    HW1 7711   1.362   1.216   6.720 -0.3450  0.3737  0.3084
 2090SOL    HW2 7712   1.364   1.074   6.666  0.7350  0.2659  0.6103
 2091SOL     OW 7713   1.246   3.840   6.547 -0.2531  0.0141  0.5147
 2091SOL    HW1 7714   1.246   3.756   6.502  0.2925  0.1699  0.2176
 2091SOL    HW2 7715   1.180   3.892   6.501  1.5885  0.8203 -1.3769
 2092SOL     OW 7716   1.528   4.552   5.872  0.6717 -0.4501 -0.1215
 2092SOL    HW1 7717   1.530   4.534   5.966  0.8733  0.7020  0.1053
 2092SOL    HW2 7718   1.578   4.480   5.833  2.1692  0.0342  0.8219
 2093SOL     OW 7719   1.950   3.309   5.497  0.1345  0.0510  0.1817
 2093SOL    HW1 7720   1.959   3.319   5.592 -2.3672  0.3758  0.4596
 2093SOL    HW2 7721   1.975   3.395   5.462 -1.5281  0.8482  0.8282
 2094SOL     OW 7722   1.781   1.109   5.430  0.3780 -0.1661 -0.2249
 2094SOL    HW1 7723   1.860   1.060   5.451 -0.2896 -0.8179  0.8880
 2094SOL    HW2 7724   1.788   1.190   5.481  0.7485  0.2007 -0.8468
 2095SOL     OW 7725   0.779   2.066   6.670  0.6966 -0.0057  0.7035
 2095SOL    HW1 7726   0.692   2.106   6.673  0.5700 -0.3422  2.0545
 2095SOL    HW2 7727   0.806   2.061   6.761  2.7239  1.3205  0.2385
 2096SOL     OW 7728   0.877   2.916   5.439  0.2489  0.4045  0.2372
 2096SOL    HW1 7729   0.887   2.998   5.391  0.2515 -0.3355 -1.0473
 2096SOL    HW2 7730   0.828   2.940   5.518  0.9236  1.7699  0.2655
 2097SOL     OW 7731   0.985   2.513   7.004  0.3746  0.0223  0.0305
 2097SOL    HW1 7732   1.059   2.492   7.061 -0.2541 -0.0549  0.8504
 2097SOL    HW2 7733   1.022   2.569   6.935  1.1273  0.2709  0.6182
 2098SOL     OW 7734   1.653   0.461   5.119  0.4118 -0.5849  0.7821
 2098SOL    HW1 7735   1.645   0.448   5.214  0.4605 -3.7064  0.4648
 2098SOL    HW2 7736   1.692   0.548   5.110 -2.0229  0.9752  3.4837
 2099SOL     OW 7737   6.127   3.175   6.341 -0.0542  0.2640  0.1228
 2099SOL    HW1 7738   6.106   3.243   6.277  1.5890  0.9146  0.2261
 2099SOL    HW2 7739   6.143   3.223   6.423  0.4492 -0.3015  0.3618
 2100SOL     OW 7740   2.387   3.672   5.548  0.1089 -0.1645 -0.0737
 2100SOL    HW1 7741   2.337   3.593   5.565 -2.0533  1.1640  0.1872
 2100SOL    HW2 7742   2.478   3.643   5.545 -0.7416 -3.0340 -2.5220
 2101SOL     OW 7743   0.156   2.417   6.710 -0.1797  0.0503  0.0769
 2101SOL    HW1 7744   0.240   2.421   6.663 -0.8446  0.8263 -1.1047
 2101SOL    HW2 7745   0.109   2.344   6.670 -0.1586 -0.2327  0.5715
 2102SOL     OW 7746   0.979   2.582   7.432  0.2938 -0.1481 -0.1596
 2102SOL    HW1 7747   0.931   2.663   7.413 -1.9061 -1.7926 -2.2928
 2102SOL    HW2 7748   0.931   2.542   7.504  1.4807  0.4585  1.0076
 2103SOL     OW 7749   2.135   2.936   6.557 -0.1056  0.1935  0.4059
 2103SOL    HW1 7750   2.079   3.005   6.593  0.5363  0.8442  0.1882
 2103SOL    HW2 7751   2.174   2.894   6.634 -0.3064  0.2353  0.5315
 2104SOL     OW 7752   2.513   5.015   5.619 -0.6520  0.8366  0.1765
 2104SOL    HW1 7753   2.511   5.103   5.581  2.5466  0.4121 -1.2474
 2104SOL    HW2 7754   2.573   5.022   5.692  0.2818 -0.3082 -0.4545
 2105SOL     OW 7755   7.071   3.247   4.654 -0.3172  0.1420 -0.5939
 2105SOL    HW1 7756   7.078   3.342   4.667  2.1389 -0.3404  2.9341
 2105SOL    HW2 7757   7.151   3.222   4.609  0.3992 -0.4908  0.9507
 2106SOL     OW 7758   4.701   1.633   8.465 -0.1228  0.4463 -0.0806
 2106SOL    HW1 7759   4.764   1.581   8.415  0.5871  1.1751  0.0376
 2106SOL    HW2 7760   4.691   1.714   8.415 -1.2099  0.2238 -0.2568
 2107SOL     OW 7761   0.047   2.897   5.974  0.4735  0.0545  0.6589
 2107SOL    HW1 7762   0.107   2.971   5.958  0.6087 -0.3077 -0.5825
 2107SOL    HW2 7763   0.105   2.822   5.988  0.3215  0.0288  1.1855
 2108SOL     OW 7764   7.689   1.534   7.992 -0.8126 -0.2951 -0.0143
 2108SOL    HW1 7765   7.759   1.578   8.041  0.7702 -1.0340 -1.4986
 2108SOL    HW2 7766   7.650   1.604   7.939 -0.9088  0.0444  0.4999
 2109SOL     OW 7767   1.483   1.580   6.265 -0.0353 -0.2766 -0.1559
 2109SOL    HW1 7768   1.531   1.617   6.191  0.4526  1.2060  0.8537
 2109SOL    HW2 7769   1.404   1.634   6.272 -0.1534 -0.5049  0.3204
 2110SOL     OW 7770   0.907   2.711   6.332  0.0197 -0.3398  0.1047
 2110SOL    HW1 7771   0.967   2.638   6.316  1.4619  1.0634 -1.2871
 2110SOL    HW2 7772   0.963   2.788   6.338 -1.5994  0.9928 -0.8174
 2111SOL     OW 7773   1.900   2.638   8.047  0.1679 -0.5189 -0.3174
 2111SOL    HW1 7774   1.822   2.598   8.085 -0.8530 -0.7414 -2.4496
 2111SOL    HW2 7775   1.969   2.574   8.061 -0.2625 -0.7734  0.7249
 2112SOL     OW 7776   2.027   1.408   6.601 -0.4801 -0.4629  0.0666
 2112SOL    HW1 7777   2.087   1.436   6.532 -0.2928 -0.7290  0.1196
 2112SOL    HW2 7778   2.084   1.373   6.669 -0.6996 -0.7935  0.0837
 2113SOL     OW 7779   6.610   2.459   5.312 -0.4511 -0.2590  0.3654
 2113SOL    HW1 7780   6.522   2.466   5.349 -0.0409  0.1864  1.2876
 2113SOL    HW2 7781   6.665   2.509   5.372  0.2562  0.4138 -0.8104
 2114SOL     OW 7782   7.221   3.680   9.210  0.2874 -0.0021 -0.2614
 2114SOL    HW1 7783   7.235   3.693   9.304  0.0367 -1.2604 -0.0312
 2114SOL    HW2 7784   7.307   3.657   9.176  0.4597  0.8481 -0.4255
 2115SOL     OW 7785   0.960   1.415   5.100  0.3837 -0.0723  0.1499
 2115SOL    HW1 7786   0.865   1.431   5.103  0.4046  0.1255 -0.2600
 2115SOL    HW2 7787   0.984   1.427   5.008  0.8918  0.3571  0.3328
 2116SOL     OW 7788   3.064   3.277   7.565  0.3516  0.9001  0.0366
 2116SOL    HW1 7789   3.055   3.329   7.645  1.3806 -1.2362  1.6509
 2116SOL    HW2 7790   3.144   3.311   7.524  1.2440  0.4180  1.2838
 2117SOL     OW 7791   0.857   0.805   5.642  0.0534 -0.6947  0.5753
 2117SOL    HW1 7792   0.884   0.818   5.732 -0.2736 -1.7181  0.8327
 2117SOL    HW2 7793   0.787   0.870   5.629 -0.5062 -1.1226  1.3422
 2118SOL     OW 7794   2.593   2.176   7.050 -0.1523 -0.9405  0.4477
 2118SOL    HW1 7795   2.647   2.231   6.993  0.2082 -0.4206  1.2825
 2118SOL    HW2 7796   2.555   2.111   6.990 -0.9214  0.4373 -0.6240
 2119SOL     OW 7797   0.849   3.189   7.015 -0.2882  0.3280  0.1306
 2119SOL    HW1 7798   0.821   3.280   7.027 -1.1454 -0.0156  0.8769
 2119SOL    HW2 7799   0.921   3.194   6.952  0.8518  1.6980  1.4693
 2120SOL     OW 7800   7.364   3.486   7.851 -0.0746  0.5261  0.3269
 2120SOL    HW1 7801   7.413   3.432   7.788 -0.4445  0.2502  0.2739
 2120SOL    HW2 7802   7.272   3.474   7.826 -0.1081  2.2228 -0.5318
 2121SOL     OW 7803   1.468   2.217   5.645 -0.0218 -0.6164  0.3006
 2121SOL    HW1 7804   1.391   2.162   5.629  0.2637 -1.1686  0.8207
 2121SOL    HW2 7805   1.542   2.158   5.633  0.2760 -0.4563  1.2855
 2122SOL     OW 7806   1.184   3.311   6.507 -0.1040  0.1658 -0.2436
 2122SOL    HW1 7807   1.256   3.255   6.534 -1.7415 -1.2930  1.3820
 2122SOL    HW2 7808   1.197   3.325   6.413  2.0403 -0.3434 -0.0644
 2123SOL     OW 7809   0.375   2.594   7.071 -0.0631 -0.2959  0.3170
 2123SOL    HW1 7810   0.464   2.618   7.098 -0.3255  1.4556 -0.3000
 2123SOL    HW2 7811   0.349   2.661   7.008 -1.8771 -0.6987  0.5731
 2124SOL     OW 7812   1.397   2.401   5.833 -0.3114 -0.2710  0.2123
 2124SOL    HW1 7813   1.402   2.315   5.792 -1.3524 -0.4689  0.4622
 2124SOL    HW2 7814   1.485   2.418   5.865 -0.2942 -1.6736  1.0091
 2125SOL     OW 7815   6.772   3.432   5.418  0.6491  0.0143  0.1217
 2125SOL    HW1 7816   6.782   3.367   5.348 -2.3700  0.2316 -0.6584
 2125SOL    HW2 7817   6.763   3.515   5.373 -0.4796  0.2799  0.7897
 2126SOL     OW 7818   1.598   3.767   6.977 -0.1441  0.6824 -0.2539
 2126SOL    HW1 7819   1.512   3.795   6.945 -1.3345  1.2656  3.1386
 2126SOL    HW2 7820   1.660   3.822   6.929 -1.8919  2.6908 -0.3567
 2127SOL     OW 7821   1.191   1.553   7.810  0.5515 -0.2728  0.2855
 2127SOL    HW1 7822   1.119   1.492   7.826  1.8210 -1.6302  1.0455
 2127SOL    HW2 7823   1.224   1.575   7.897  1.3689 -0.0579 -0.0712
 2128SOL     OW 7824   0.319   2.445   4.858  0.1945 -0.3710 -0.5532
 2128SOL    HW1 7825   0.405   2.481   4.839 -0.1217  0.6129 -0.1514
 2128SOL    HW2 7826   0.294   2.399   4.777  0.7485  0.0179 -0.9540
 2129SOL     OW 7827   0.720   3.728   5.546 -0.4234 -0.0316 -0.2519
 2129SOL    HW1 7828   0.711   3.773   5.462 -1.1528 -1.6269 -1.0764
 2129SOL    HW2 7829   0.812   3.703   5.551 -0.5337 -0.5960 -0.9532
 2130SOL     OW 7830   2.302   0.225   7.313 -0.3574  0.1141  0.1035
 2130SOL    HW1 7831   2.324   0.166   7.386  0.7366 -2.1556 -1.9223
 2130SOL    HW2 7832   2.383   0.272   7.295 -0.5934  0.5834  0.2609
 2131SOL     OW 7833   6.978   4.142   8.759 -0.5744 -0.1861 -0.0943
 2131SOL    HW1 7834   7.009   4.127   8.849 -0.2546  0.6409 -0.0611
 2131SOL    HW2 7835   7.047   4.195   8.718 -0.3835 -1.1353 -1.0508
 2132SOL     OW 7836   2.269   2.479   3.977  0.0490 -0.3002  0.2495
 2132SOL    HW1 7837   2.255   2.483   4.072 -0.1656  0.9133  0.1857
 2132SOL    HW2 7838   2.318   2.558   3.957 -1.6347  0.5225 -0.9049
 2133SOL     OW 7839   0.684   3.499   5.720  0.6034 -0.5192  0.2905
 2133SOL    HW1 7840   0.766   3.455   5.698  2.1735  1.4494  1.8363
 2133SOL    HW2 7841   0.667   3.557   5.645  0.3491 -1.2256 -0.2157
 2134SOL     OW 7842   2.108   7.796   5.611  0.5715 -0.3227 -0.1022
 2134SOL    HW1 7843   2.065   7.820   5.529  1.3799  0.7526 -0.2210
 2134SOL    HW2 7844   2.039   7.751   5.661 -0.5560  0.9155 -0.4816
 2135SOL     OW 7845   2.547   2.363   3.370  0.0593 -0.2986  0.4996
 2135SOL    HW1 7846   2.518   2.385   3.458 -0.7543 -1.9684  0.6836
 2135SOL    HW2 7847   2.526   2.441   3.318  1.3616  1.0535  1.9047
 2136SOL     OW 7848   7.609   3.188   8.484 -0.3505  0.5085 -0.2040
 2136SOL    HW1 7849   7.599   3.207   8.577 -2.5013 -0.4661 -0.1516
 2136SOL    HW2 7850   7.564   3.260   8.440  0.1847  0.6817 -0.4740
 2137SOL     OW 7851   0.184   3.295   6.864 -0.1485  0.4253 -0.3048
 2137SOL    HW1 7852   0.093   3.266   6.869 -0.6304  1.5267 -1.8107
 2137SOL    HW2 7853   0.210   3.276   6.774  2.2670 -2.9429  0.8978
 2138SOL     OW 7854   1.830   3.163   8.008  0.4825 -0.1021 -0.2899
 2138SOL    HW1 7855   1.856   3.071   8.018 -1.0049 -0.4870  0.1977
 2138SOL    HW2 7856   1.823   3.195   8.098 -0.3885  0.0845 -0.4237
 2139SOL     OW 7857   7.866   3.730   4.913  0.0859 -0.1881  0.6982
 2139SOL    HW1 7858   7.922   3.773   4.978  0.6917 -0.2855  0.2423
 2139SOL    HW2 7859   7.921   3.663   4.874 -0.4448 -0.4911  0.4546
 2140SOL     OW 7860   0.255   3.039   5.876  0.2537  0.0681  0.2556
 2140SOL    HW1 7861   0.268   3.108   5.941  0.0242 -0.1840  0.5682
 2140SOL    HW2 7862   0.200   3.080   5.809  0.3233  0.2661  0.3167
 2141SOL     OW 7863   0.834   1.811   6.144 -0.2928  0.4893  0.2395
 2141SOL    HW1 7864   0.918   1.857   6.152 -0.9243  1.7214  0.0067
 2141SOL    HW2 7865   0.857   1.718   6.147  0.9805  0.8098  1.1751
 2142SOL     OW 7866   0.599   3.722   5.939 -0.5685  0.3326 -0.2346
 2142SOL    HW1 7867   0.555   3.779   5.877 -0.1461 -0.1985 -1.0330
 2142SOL    HW2 7868   0.661   3.671   5.887  2.2776  2.2131  1.0341
 2143SOL     OW 7869   0.635   2.198   6.042 -0.3461  0.5997  0.2397
 2143SOL    HW1 7870   0.651   2.198   5.948  1.0877 -0.0783  0.4538
 2143SOL    HW2 7871   0.655   2.287   6.070 -1.5099  1.0156 -0.1856
 2144SOL     OW 7872   7.553   3.449   5.230 -0.1915  0.1620  0.2474
 2144SOL    HW1 7873   7.623   3.413   5.285 -0.6645 -0.3962  0.4898
 2144SOL    HW2 7874   7.479   3.390   5.242 -0.2111 -0.1702 -1.2343
 2145SOL     OW 7875   1.396   3.857   6.779 -0.1265 -0.0301  0.0628
 2145SOL    HW1 7876   1.344   3.845   6.699 -0.4953 -2.0599  0.5394
 2145SOL    HW2 7877   1.485   3.835   6.752 -0.2091 -0.4633  0.1244
 2146SOL     OW 7878   7.716   3.941   5.217  0.6078  0.0767  0.0326
 2146SOL    HW1 7879   7.667   3.878   5.165 -0.9110  0.7411  0.6161
 2146SOL    HW2 7880   7.758   3.998   5.152 -0.3197  0.1842 -0.4893
 2147SOL     OW 7881   0.487   2.090   4.562  0.0593 -0.0368  0.5225
 2147SOL    HW1 7882   0.576   2.115   4.584  0.1897 -0.0807  0.0448
 2147SOL    HW2 7883   0.473   2.009   4.611  0.6596 -0.6133 -0.2304
 2148SOL     OW 7884   0.239   3.990   7.237  0.2266 -0.1953 -0.2434
 2148SOL    HW1 7885   0.241   3.969   7.143  1.9623 -0.1736 -0.2542
 2148SOL    HW2 7886   0.202   4.078   7.242 -0.7951 -0.5823 -0.8120
 2149SOL     OW 7887   6.570   2.781   5.145 -0.1707  0.7887 -0.3291
 2149SOL    HW1 7888   6.639   2.772   5.079  0.1414  0.9140 -0.0217
 2149SOL    HW2 7889   6.516   2.702   5.134  0.2799  0.4691 -0.2767
 2150SOL     OW 7890   1.350   1.742   6.875  0.7027 -0.0334  0.5076
 2150SOL    HW1 7891   1.265   1.711   6.845 -0.1896  1.4437  1.3794
 2150SOL    HW2 7892   1.390   1.666   6.917  0.1487 -0.9404 -0.5559
 2151SOL     OW 7893   1.680   1.545   7.245  0.4052  0.2783 -0.2326
 2151SOL    HW1 7894   1.602   1.551   7.191  1.3238  0.5820 -1.5733
 2151SOL    HW2 7895   1.712   1.635   7.252  0.0300  0.3258  1.2726
 2152SOL     OW 7896   7.183   3.523   5.343  0.1274  0.5561 -0.4580
 2152SOL    HW1 7897   7.208   3.459   5.276  0.5924  0.3998 -0.1350
 2152SOL    HW2 7898   7.097   3.554   5.314 -0.2376 -0.4164 -0.4767
 2153SOL     OW 7899   1.945   0.130   5.081  0.3221 -0.5892 -0.0663
 2153SOL    HW1 7900   1.929   0.184   5.004 -0.0071  0.5845  0.7909
 2153SOL    HW2 7901   1.943   0.192   5.154  4.3506 -0.9927  0.6066
 2154SOL     OW 7902   1.502   3.073   6.189  0.2350  0.0238 -0.0053
 2154SOL    HW1 7903   1.580   3.081   6.245  1.0662 -1.0647 -0.9522
 2154SOL    HW2 7904   1.521   3.130   6.115 -1.3024  2.2542  1.2130
 2155SOL     OW 7905   1.631   3.415   4.707  0.0339  0.6642 -0.3807
 2155SOL    HW1 7906   1.677   3.494   4.736 -0.8342  0.8948  0.3898
 2155SOL    HW2 7907   1.618   3.428   4.613  0.5720  1.0851 -0.4006
 2156SOL     OW 7908   3.061   1.549   6.887 -0.4068  0.7011  0.5048
 2156SOL    HW1 7909   3.127   1.576   6.823  0.2184 -0.5830  0.5741
 2156SOL    HW2 7910   3.056   1.454   6.877 -1.0867  0.6068  1.6194
 2157SOL     OW 7911   1.560   3.368   5.109 -0.5694 -0.7590 -0.4523
 2157SOL    HW1 7912   1.512   3.448   5.086  0.4668  0.1362  0.3787
 2157SOL    HW2 7913   1.649   3.399   5.127 -0.1582 -2.1139 -0.1060
 2158SOL     OW 7914   0.670   3.617   6.521  0.3625 -0.1574 -0.7011
 2158SOL    HW1 7915   0.680   3.694   6.577 -1.7191  0.0664 -0.5390
 2158SOL    HW2 7916   0.595   3.638   6.465  1.7292 -0.8106 -2.8906
 2159SOL     OW 7917   2.335   0.132   3.498 -0.2434  0.1421  0.0714
 2159SOL    HW1 7918   2.312   0.039   3.504 -0.2991  0.0955 -0.7087
 2159SOL    HW2 7919   2.352   0.146   3.405 -1.3099  1.1685  0.0094
 2160SOL     OW 7920   0.868   2.628   5.436 -0.2011  0.2069 -0.1299
 2160SOL    HW1 7921   0.801   2.569   5.471  0.3209 -0.5551 -0.3697
 2160SOL    HW2 7922   0.836   2.716   5.456 -0.5139 -0.1692  1.1624
 2161SOL     OW 7923   3.984   2.379   9.161  0.4689 -0.1651 -0.1502
 2161SOL    HW1 7924   3.898   2.380   9.119 -0.2056  0.9538  1.1610
 2161SOL    HW2 7925   4.021   2.294   9.137 -0.3177 -0.0172 -2.0442
 2162SOL     OW 7926   0.827   2.440   6.103 -0.3962 -0.0618 -0.1829
 2162SOL    HW1 7927   0.860   2.490   6.177 -0.0658 -1.4143  0.6091
 2162SOL    HW2 7928   0.812   2.506   6.034 -0.0526  1.1128  0.8370
 2163SOL     OW 7929   2.440   2.696   5.683 -0.1335 -0.0473  0.0635
 2163SOL    HW1 7930   2.461   2.632   5.615  0.3975 -0.4790  0.6289
 2163SOL    HW2 7931   2.405   2.771   5.635  1.3228  0.1101 -0.7832
 2164SOL     OW 7932   2.852   1.946   4.240  0.2948  0.0055 -0.5824
 2164SOL    HW1 7933   2.855   2.039   4.262  1.9553 -0.1662  0.0346
 2164SOL    HW2 7934   2.773   1.914   4.284  1.0913  0.6260  1.4125
 2165SOL     OW 7935   7.865   3.688   9.091 -0.2130 -0.2121  0.1581
 2165SOL    HW1 7936   7.780   3.669   9.131  0.5806 -0.4504  1.8300
 2165SOL    HW2 7937   7.906   3.749   9.152  0.6610  0.2203 -0.8486
 2166SOL     OW 7938   1.142   0.968   6.077 -0.1043 -0.2561  0.2685
 2166SOL    HW1 7939   1.183   1.048   6.045 -1.8445  1.3810  1.8684
 2166SOL    HW2 7940   1.174   0.959   6.167  0.1276 -1.4375  0.0857
 2167SOL     OW 7941   7.552   3.327   6.595  0.1009  0.2576  0.0688
 2167SOL    HW1 7942   7.555   3.232   6.607 -0.5558  0.2312  0.0528
 2167SOL    HW2 7943   7.639   3.357   6.620  0.2196 -0.3189  0.3619
 2168SOL     OW 7944   2.355   2.737   6.310 -0.1810  0.0230 -0.0704
 2168SOL    HW1 7945   2.339   2.818   6.358  1.8330  2.4824 -3.1220
 2168SOL    HW2 7946   2.449   2.724   6.314 -0.3111 -1.4182 -0.7986
 2169SOL     OW 7947   7.677   2.854   4.269 -0.0592 -0.5511 -0.3572
 2169SOL    HW1 7948   7.606   2.840   4.207 -1.2988  0.4274  0.7806
 2169SOL    HW2 7949   7.640   2.832   4.354  1.4500 -1.4076  0.1254
 2170SOL     OW 7950   1.839   0.710   7.059  0.6090 -0.3503  0.1938
 2170SOL    HW1 7951   1.801   0.791   7.026  0.7983 -0.5692 -0.5675
 2170SOL    HW2 7952   1.766   0.664   7.099  0.4892  0.1613  0.5857
 2171SOL     OW 7953   0.665   4.008   8.182 -0.6841 -0.1651 -0.1266
 2171SOL    HW1 7954   0.618   4.089   8.165  0.7701  1.4043  2.6735
 2171SOL    HW2 7955   0.598   3.947   8.212 -1.4602  0.7586  0.0615
 2172SOL     OW 7956   6.724   3.118   6.158 -0.8164 -0.0339  0.0359
 2172SOL    HW1 7957   6.752   3.030   6.131  0.7086 -0.2668  2.1152
 2172SOL    HW2 7958   6.722   3.169   6.077  0.4435 -1.4188 -0.9125
 2173SOL     OW 7959   1.012   2.219   7.196  0.2161 -0.5634  0.0993
 2173SOL    HW1 7960   1.098   2.177   7.190  0.6619  0.4617 -1.1523
 2173SOL    HW2 7961   1.022   2.282   7.268 -0.0881 -1.7095  1.1839
 2174SOL     OW 7962   0.551   4.085   6.309 -0.2279 -0.7582  0.3742
 2174SOL    HW1 7963   0.507   4.105   6.392 -1.3682 -1.5047 -0.0294
 2174SOL    HW2 7964   0.488   4.110   6.242  0.3707 -0.9142 -0.2498
 2175SOL     OW 7965   0.485   3.704   7.272 -0.2187  0.1233  0.2848
 2175SOL    HW1 7966   0.575   3.673   7.262  0.3617  1.9707 -0.6742
 2175SOL    HW2 7967   0.468   3.752   7.191 -1.4442  1.2772  1.2004
 2176SOL     OW 7968   1.580   3.245   5.973 -0.0307 -0.6809 -0.3184
 2176SOL    HW1 7969   1.566   3.333   5.938  0.3174  0.2528  1.7813
 2176SOL    HW2 7970   1.662   3.217   5.932  0.4627  0.4442 -0.1449
 2177SOL     OW 7971   0.457   2.076   6.953 -0.0159 -0.1656  0.8701
 2177SOL    HW1 7972   0.430   2.052   7.042 -0.1378  0.5584  1.0378
 2177SOL    HW2 7973   0.442   2.170   6.949 -2.2555 -0.4919 -0.6744
 2178SOL     OW 7974   0.662   2.768   8.025  0.3063  0.9036 -0.2815
 2178SOL    HW1 7975   0.708   2.849   8.002  0.0760  0.3167 -3.0978
 2178SOL    HW2 7976   0.579   2.774   7.979  0.5930 -1.2304 -1.1936
 2179SOL     OW 7977   1.488   1.774   6.015 -0.3313 -0.3142  0.1036
 2179SOL    HW1 7978   1.536   1.842   6.063 -0.1063 -0.4692  0.0980
 2179SOL    HW2 7979   1.396   1.800   6.023 -0.1767  0.6383 -0.8878
 2180SOL     OW 7980   2.047   1.015   6.785  0.3867  0.0318 -0.1598
 2180SOL    HW1 7981   2.076   1.089   6.839  0.5170  1.4572 -2.0943
 2180SOL    HW2 7982   2.074   0.937   6.835  0.4785  1.2517  1.8111
 2181SOL     OW 7983   7.876   1.469   8.345 -0.1216 -0.1140 -0.6521
 2181SOL    HW1 7984   7.886   1.523   8.267 -2.8964 -1.3334 -1.9947
 2181SOL    HW2 7985   7.868   1.380   8.312  0.1918 -0.8622  1.1720
 2182SOL     OW 7986   7.134   2.568   4.924  0.6574 -0.0801 -0.3255
 2182SOL    HW1 7987   7.213   2.610   4.959 -0.7376  0.6986  2.1032
 2182SOL    HW2 7988   7.084   2.640   4.885  1.3533 -0.6675 -2.4464
 2183SOL     OW 7989   0.532   4.316   7.337  0.0819 -0.2856 -0.3015
 2183SOL    HW1 7990   0.552   4.255   7.265 -0.4605 -0.2137 -0.5199
 2183SOL    HW2 7991   0.505   4.260   7.409  0.0452 -0.3281 -0.3481
 2184SOL     OW 7992   1.150   1.933   6.697 -0.5169 -0.5612  0.6338
 2184SOL    HW1 7993   1.090   1.863   6.723 -1.0926 -0.6488 -0.8042
 2184SOL    HW2 7994   1.237   1.902   6.723 -0.8884 -1.2906  1.0389
 2185SOL     OW 7995   1.829   1.149   6.532 -0.5347  0.0663  0.6878
 2185SOL    HW1 7996   1.914   1.112   6.559  0.1242  0.9094 -0.1579
 2185SOL    HW2 7997   1.764   1.092   6.573  0.4265  0.0530  2.2751
 2186SOL     OW 7998   7.955   2.502   5.726 -0.2709 -0.5165  0.0320
 2186SOL    HW1 7999   7.887   2.435   5.719 -1.1012  0.3930 -1.0341
 2186SOL    HW2 8000   7.906   2.584   5.738  0.6512  0.0772 -0.1903
 2187SOL     OW 8001   2.888   3.046   4.766 -0.7833  0.3687  0.2378
 2187SOL    HW1 8002   2.816   3.054   4.828 -1.0816  0.8309 -0.1580
 2187SOL    HW2 8003   2.910   3.136   4.743 -0.9153  0.1986 -0.5930
 2188SOL     OW 8004   2.105   2.122   8.944 -0.0097 -0.2934  0.1133
 2188SOL    HW1 8005   2.195   2.148   8.925  0.1279 -0.3137  0.7149
 2188SOL    HW2 8006   2.113   2.048   9.004 -0.4218 -0.5713 -0.1706
 2189SOL     OW 8007   1.660   3.220   5.328  0.3807  0.1939 -0.7105
 2189SOL    HW1 8008   1.647   3.269   5.409 -0.4199 -0.3397 -0.5131
 2189SOL    HW2 8009   1.643   3.285   5.259  1.9920  0.9058 -0.4894
 2190SOL     OW 8010   2.855   7.864   4.325 -0.3044  0.3566  0.5408
 2190SOL    HW1 8011   2.789   7.838   4.261  0.5268 -0.7510  0.1146
 2190SOL    HW2 8012   2.886   7.782   4.363  1.5088  0.7462  0.0238
 2191SOL     OW 8013   0.985   2.435   8.039 -0.3648 -0.3885 -0.0438
 2191SOL    HW1 8014   0.897   2.438   8.003  0.2705 -0.3715 -1.7010
 2191SOL    HW2 8015   0.977   2.383   8.119 -1.6115 -1.7743 -1.0128
 2192SOL     OW 8016   1.627   4.169   9.180 -0.3049  0.2514  0.6362
 2192SOL    HW1 8017   1.644   4.225   9.104  0.9511  0.3526  0.9608
 2192SOL    HW2 8018   1.616   4.082   9.143 -1.4764  0.5723  0.1959
 2193SOL     OW 8019   1.284   3.712   7.593 -0.2270 -0.1630 -0.1365
 2193SOL    HW1 8020   1.350   3.740   7.530 -0.5261 -0.3047 -0.5247
 2193SOL    HW2 8021   1.255   3.627   7.560 -1.2789  0.3228 -0.5110
 2194SOL     OW 8022   6.698   3.714   8.508 -0.5226  0.5217  0.0532
 2194SOL    HW1 8023   6.676   3.624   8.533  0.2848  0.2394 -0.2416
 2194SOL    HW2 8024   6.647   3.730   8.428 -3.4229  1.5536  1.9101
 2195SOL     OW 8025   1.856   4.647   5.261 -0.0009  0.1108 -0.2719
 2195SOL    HW1 8026   1.937   4.670   5.215  0.1133  2.3277  0.9271
 2195SOL    HW2 8027   1.802   4.725   5.254 -1.0957 -0.5171  0.9623
 2196SOL     OW 8028   1.436   1.362   2.724  0.4260  0.7344 -0.3278
 2196SOL    HW1 8029   1.384   1.333   2.798 -2.3853  2.5880 -1.4398
 2196SOL    HW2 8030   1.511   1.407   2.763  0.4808 -0.6475  1.3060
 2197SOL     OW 8031   2.436   3.426   7.374 -0.3832 -0.0575  0.4440
 2197SOL    HW1 8032   2.490   3.488   7.326  0.9526  0.8123  2.8949
 2197SOL    HW2 8033   2.376   3.480   7.426 -0.1522 -0.8231  1.5559
 2198SOL     OW 8034   6.676   2.155   5.188  0.4915  0.5686  0.4133
 2198SOL    HW1 8035   6.613   2.091   5.221 -0.1255  0.2930 -1.2283
 2198SOL    HW2 8036   6.648   2.238   5.228  0.2238  0.1369  1.1515
 2199SOL     OW 8037   0.708   2.960   5.878 -0.2242  0.2221  0.1721
 2199SOL    HW1 8038   0.719   2.865   5.887 -1.4663  0.0875  0.5051
 2199SOL    HW2 8039   0.768   2.996   5.943  0.2034 -0.3340  0.1003
 2200SOL     OW 8040   2.028   2.361   7.390 -0.3644  0.2613 -0.2036
 2200SOL    HW1 8041   1.984   2.294   7.444 -0.6349  0.3615 -0.2976
 2200SOL    HW2 8042   2.120   2.356   7.416  0.1401 -1.9994 -2.0915
 2201SOL     OW 8043   6.439   7.840   7.793  0.0904 -1.2125  0.0074
 2201SOL    HW1 8044   6.410   7.864   7.881 -1.2870 -0.5423 -0.5892
 2201SOL    HW2 8045   6.446   7.923   7.747 -2.3055 -1.6726 -1.3885
 2202SOL     OW 8046   1.924   3.054   7.679 -0.5046 -0.5155 -0.0791
 2202SOL    HW1 8047   1.879   3.092   7.604 -1.2531 -0.8092  0.2204
 2202SOL    HW2 8048   1.904   3.112   7.752 -0.1048 -0.4547 -0.0107
 2203SOL     OW 8049   0.073   4.119   6.815 -0.0105  0.0321 -0.2226
 2203SOL    HW1 8050   0.110   4.190   6.761  1.5558 -0.1159  0.6094
 2203SOL    HW2 8051   0.132   4.045   6.800 -1.0456 -0.7973 -0.2788
 2204SOL     OW 8052   6.714   3.906   7.262 -0.7104 -0.4919  0.1835
 2204SOL    HW1 8053   6.674   3.993   7.262 -1.6409 -0.9073 -0.2186
 2204SOL    HW2 8054   6.771   3.906   7.185  0.1162  0.1212  0.7845
 2205SOL     OW 8055   1.778   1.877   6.958  0.2704  0.0318  0.4440
 2205SOL    HW1 8056   1.690   1.890   6.922  0.3242 -1.8257 -0.4184
 2205SOL    HW2 8057   1.777   1.927   7.040 -1.7167 -0.2747  0.6530
 2206SOL     OW 8058   1.672   0.396   5.377  0.0289  0.2433 -0.5629
 2206SOL    HW1 8059   1.730   0.382   5.452 -0.7735  1.3675  0.3124
 2206SOL    HW2 8060   1.585   0.372   5.409  0.1718 -3.4057 -2.4683
 2207SOL     OW 8061   1.621   2.631   6.068  0.0412  0.6585  0.4438
 2207SOL    HW1 8062   1.645   2.716   6.103 -1.8597  1.6372 -0.4822
 2207SOL    HW2 8063   1.541   2.607   6.114 -2.0944  1.6269 -2.4576
 2208SOL     OW 8064   2.718   2.480   7.194 -0.1530 -0.0412  0.4477
 2208SOL    HW1 8065   2.725   2.408   7.257 -3.2189 -0.4564  0.4786
 2208SOL    HW2 8066   2.736   2.439   7.109 -1.4120 -0.8001  0.5164
 2209SOL     OW 8067   1.688   0.955   5.205 -0.4220 -0.2400  0.2056
 2209SOL    HW1 8068   1.713   0.982   5.293 -3.0709  0.5733  0.7786
 2209SOL    HW2 8069   1.597   0.981   5.196 -0.0963  0.2265 -3.0167
 2210SOL     OW 8070   2.173   1.517   6.383  0.2091 -0.6374  0.3627
 2210SOL    HW1 8071   2.194   1.602   6.346  0.4080  0.1699  2.2236
 2210SOL    HW2 8072   2.245   1.460   6.356  0.3868 -0.0674 -0.3769
 2211SOL     OW 8073   7.337   3.757   8.593  0.4252  0.3447 -0.0473
 2211SOL    HW1 8074   7.372   3.670   8.577 -1.1881 -0.0588 -1.6384
 2211SOL    HW2 8075   7.279   3.747   8.668  0.6914  0.1950  0.1409
 2212SOL     OW 8076   0.327   1.163   6.137  0.8113  0.1548  0.0881
 2212SOL    HW1 8077   0.382   1.240   6.122  2.4056 -1.1549 -1.1604
 2212SOL    HW2 8078   0.377   1.111   6.200 -0.4996  0.3313  1.3286
 2213SOL     OW 8079   1.567   4.146   7.257  0.0446 -0.0204 -0.0430
 2213SOL    HW1 8080   1.505   4.180   7.321  2.0454  0.3409  1.7954
 2213SOL    HW2 8081   1.600   4.065   7.296 -0.8486 -1.4526 -2.0332
 2214SOL     OW 8082   7.995   3.262   5.925 -0.1457 -0.0479  0.2634
 2214SOL    HW1 8083   8.040   3.338   5.887  0.1950  0.1898  1.1067
 2214SOL    HW2 8084   7.937   3.299   5.991 -0.7598 -0.4488 -0.0426
 2215SOL     OW 8085   0.686   1.024   7.037 -1.0416  0.0769 -0.5572
 2215SOL    HW1 8086   0.706   1.017   6.943 -3.3409  0.6142 -1.1430
 2215SOL    HW2 8087   0.672   0.934   7.065 -0.2361 -0.0981 -0.6913
 2216SOL     OW 8088   2.282   2.016   8.718  0.0854 -0.5746  0.0465
 2216SOL    HW1 8089   2.270   2.100   8.675 -1.2698 -1.0224 -0.5180
 2216SOL    HW2 8090   2.214   1.960   8.680 -0.4287 -1.3118  1.9529
 2217SOL     OW 8091   1.781   1.563   5.385 -0.6278  0.0051 -0.1462
 2217SOL    HW1 8092   1.766   1.470   5.365 -1.3070 -0.1136  0.8048
 2217SOL    HW2 8093   1.786   1.566   5.481 -1.5478  1.0628 -0.1016
 2218SOL     OW 8094   3.113   1.608   7.901  0.2069  0.5945  0.4196
 2218SOL    HW1 8095   3.187   1.564   7.944 -1.0025 -0.6450  1.3044
 2218SOL    HW2 8096   3.113   1.571   7.812  0.5583  0.5026  0.4536
 2219SOL     OW 8097   7.362   3.221   7.237  0.0692 -0.5167  0.0116
 2219SOL    HW1 8098   7.435   3.177   7.280 -0.1936  1.4643  2.7711
 2219SOL    HW2 8099   7.400   3.299   7.197 -0.4638  0.6006  1.5834
 2220SOL     OW 8100   0.653   2.757   5.116  0.2537  0.4253 -0.5853
 2220SOL    HW1 8101   0.646   2.663   5.132  0.8782  0.6444  1.2564
 2220SOL    HW2 8102   0.742   2.769   5.083  0.3653  0.4256 -0.2876
 2221SOL     OW 8103   0.160   2.705   7.603 -0.5502  0.0392 -0.2444
 2221SOL    HW1 8104   0.087   2.699   7.542 -2.0921  0.4881  1.4729
 2221SOL    HW2 8105   0.172   2.799   7.617  0.4647 -0.0198 -0.6052
 2222SOL     OW 8106   2.785   2.244   5.573  0.9431  0.0050 -0.3208
 2222SOL    HW1 8107   2.804   2.229   5.665 -1.5340 -1.5993  0.0357
 2222SOL    HW2 8108   2.802   2.161   5.530 -2.4484 -0.8333 -0.3462
 2223SOL     OW 8109   2.741   2.660   4.970 -0.2454  0.0010 -0.0679
 2223SOL    HW1 8110   2.763   2.580   4.921  0.6353 -0.5005  1.1038
 2223SOL    HW2 8111   2.760   2.638   5.061 -0.7922  1.2896  0.3737
 2224SOL     OW 8112   0.621   3.195   8.025  0.5265 -0.0141 -0.1273
 2224SOL    HW1 8113   0.698   3.201   8.081  0.5935 -2.2021  0.0953
 2224SOL    HW2 8114   0.559   3.142   8.076  0.6798 -2.3088 -2.1319
 2225SOL     OW 8115   1.465   0.766   5.031 -0.1737  0.0613 -0.1152
 2225SOL    HW1 8116   1.543   0.718   5.059  0.1556 -0.1300 -1.3264
 2225SOL    HW2 8117   1.480   0.855   5.061 -0.0191 -0.2187  0.6651
 2226SOL     OW 8118   0.940   3.152   7.335 -0.2368  0.2808  0.1580
 2226SOL    HW1 8119   0.877   3.107   7.278 -0.7026 -0.3017  1.1208
 2226SOL    HW2 8120   1.011   3.176   7.276 -1.0524  0.3668 -0.8265
 2227SOL     OW 8121   7.826   4.065   5.985  0.1667 -0.5236 -0.1394
 2227SOL    HW1 8122   7.795   4.089   5.898  0.4995  0.5579  0.0328
 2227SOL    HW2 8123   7.903   4.011   5.970 -1.2494 -2.5521 -0.5551
 2228SOL     OW 8124   1.546   2.191   6.537  0.2448 -0.4402 -0.7701
 2228SOL    HW1 8125   1.557   2.254   6.467 -1.6188 -0.9297 -1.5627
 2228SOL    HW2 8126   1.535   2.107   6.493  0.8096 -1.0523  0.1968
 2229SOL     OW 8127   0.027   2.214   6.522  0.1436 -0.1114 -0.2796
 2229SOL    HW1 8128  -0.001   2.183   6.436  0.9476 -0.0737 -0.5614
 2229SOL    HW2 8129  -0.007   2.148   6.583  0.8747 -0.9577 -0.7703
 2230SOL     OW 8130   2.066   3.925   6.465  0.0468  0.2288  0.3210
 2230SOL    HW1 8131   2.157   3.954   6.468 -0.0792  0.7888 -0.8729
 2230SOL    HW2 8132   2.069   3.837   6.429  0.2527 -0.5335  2.0770
 2231SOL     OW 8133   1.406   1.253   4.759 -0.1259  0.2657 -0.4056
 2231SOL    HW1 8134   1.490   1.285   4.727  0.3793  0.8418  1.3771
 2231SOL    HW2 8135   1.425   1.166   4.794 -0.4049  0.1593 -0.5113
 2232SOL     OW 8136   7.871   3.987   6.516 -0.5116 -0.2935 -0.5634
 2232SOL    HW1 8137   7.793   4.036   6.540  0.3521  0.5453  0.6253
 2232SOL    HW2 8138   7.942   4.051   6.518  0.0276 -0.7453 -2.9484
 2233SOL     OW 8139   0.953   3.577   5.459  0.3347  0.1937 -0.2878
 2233SOL    HW1 8140   1.026   3.555   5.400  1.3168  0.1324  0.9220
 2233SOL    HW2 8141   0.885   3.514   5.435  0.8412 -0.0698 -1.1092
 2234SOL     OW 8142   0.572   3.195   7.347 -0.1087  0.5902  0.0150
 2234SOL    HW1 8143   0.637   3.231   7.408 -2.0653  0.4484  2.3347
 2234SOL    HW2 8144   0.521   3.271   7.320  0.3258  0.5476 -0.9696
 2235SOL     OW 8145   2.118   2.042   7.163  0.5565 -0.1077 -0.2556
 2235SOL    HW1 8146   2.182   2.091   7.112 -0.3247 -0.4411 -1.7499
 2235SOL    HW2 8147   2.159   1.956   7.177  1.5181  0.5363  1.1637
 2236SOL     OW 8148   2.291   2.481   6.878  0.0790 -0.4906  0.5382
 2236SOL    HW1 8149   2.258   2.552   6.932 -1.1402 -3.0181  3.3582
 2236SOL    HW2 8150   2.227   2.471   6.808 -0.9741 -0.2724  1.4579
 2237SOL     OW 8151   1.525   1.509   5.710  0.1480  0.0493 -0.2947
 2237SOL    HW1 8152   1.475   1.508   5.792 -0.3527 -0.0062 -0.5949
 2237SOL    HW2 8153   1.569   1.594   5.709  0.5069 -0.1255  0.2370
 2238SOL     OW 8154   0.497   2.534   5.749  0.3840 -0.0052 -0.9283
 2238SOL    HW1 8155   0.530   2.538   5.839  1.2204 -0.3361 -1.2145
 2238SOL    HW2 8156   0.402   2.540   5.759  0.5476  2.4367 -0.1777
 2239SOL     OW 8157   2.434   1.391   7.623 -0.0559  0.4444  0.0899
 2239SOL    HW1 8158   2.358   1.416   7.676 -0.1724  0.8900 -0.2813
 2239SOL    HW2 8159   2.509   1.427   7.670 -0.0283 -0.4052  0.7079
 2240SOL     OW 8160   7.958   2.685   4.670  0.3835  0.1986 -0.2594
 2240SOL    HW1 8161   7.933   2.682   4.578  2.3427 -1.6100 -0.8076
 2240SOL    HW2 8162   7.902   2.753   4.708 -2.3630 -0.8415 -2.1677
 2241SOL     OW 8163   0.461   2.904   9.338 -0.5128 -0.3534  0.5108
 2241SOL    HW1 8164   0.470   2.854   9.419 -0.9560  0.6831  1.2160
 2241SOL    HW2 8165   0.367   2.914   9.325 -0.4305  0.4936  0.5092
 2242SOL     OW 8166   2.262   1.843   6.847  0.4676  0.1705  0.1853
 2242SOL    HW1 8167   2.178   1.888   6.853 -0.0240 -0.6756 -0.0871
 2242SOL    HW2 8168   2.247   1.760   6.892  0.5915 -0.7693 -1.4161
 2243SOL     OW 8169   7.769   3.329   5.346  0.1168  0.4172 -0.0598
 2243SOL    HW1 8170   7.836   3.323   5.277 -1.8549 -1.7188 -1.9675
 2243SOL    HW2 8171   7.745   3.238   5.363 -1.3900  1.0565  1.5088
 2244SOL     OW 8172   1.240   3.745   7.862 -0.8698  0.8135 -0.2491
 2244SOL    HW1 8173   1.220   3.834   7.889  4.5623  2.3536 -0.0612
 2244SOL    HW2 8174   1.235   3.747   7.766 -2.5755  0.6959 -0.1816
 2245SOL     OW 8175   0.978   1.743   5.868  0.7119 -0.3062  0.1402
 2245SOL    HW1 8176   0.975   1.836   5.889 -0.8500 -0.2266 -0.3276
 2245SOL    HW2 8177   1.068   1.728   5.840  0.6165  1.4004 -1.2512
 2246SOL     OW 8178   1.382   2.503   5.531 -1.0156 -0.1393 -0.2650
 2246SOL    HW1 8179   1.465   2.455   5.538 -1.2303 -0.4702  0.0552
 2246SOL    HW2 8180   1.379   2.534   5.441 -0.0256  0.8155 -0.0018
 2247SOL     OW 8181   7.463   0.659   5.779  0.1723 -0.1823  0.4364
 2247SOL    HW1 8182   7.481   0.713   5.856  0.9069 -0.4786  0.4882
 2247SOL    HW2 8183   7.550   0.629   5.751 -0.1797 -0.9309  0.1198
 2248SOL     OW 8184   0.938   3.657   6.327 -0.0871  0.1639 -0.2620
 2248SOL    HW1 8185   0.879   3.633   6.399 -0.5688  0.3136 -0.6018
 2248SOL    HW2 8186   0.882   3.657   6.250  0.4193  0.0430 -0.6344
 2249SOL     OW 8187   7.928   2.695   7.434 -0.3185 -0.3967 -0.1392
 2249SOL    HW1 8188   7.875   2.616   7.422  1.4982 -1.5634 -0.8579
 2249SOL    HW2 8189   7.965   2.712   7.347  1.1594 -0.1496  0.5121
 2250SOL     OW 8190   1.181   2.714   8.311 -0.4086  0.0775 -0.1354
 2250SOL    HW1 8191   1.182   2.656   8.387 -2.6406  0.3122  0.1495
 2250SOL    HW2 8192   1.255   2.774   8.325 -0.4816 -0.1845  1.6086
 2251SOL     OW 8193   0.304   2.945   6.673 -0.0973 -0.2086 -0.2521
 2251SOL    HW1 8194   0.275   3.019   6.619 -0.5361  1.2086  1.7987
 2251SOL    HW2 8195   0.266   2.868   6.631  0.2923  0.7085 -2.4117
 2252SOL     OW 8196   7.801   3.427   6.725  0.2469  0.0348 -0.1548
 2252SOL    HW1 8197   7.795   3.416   6.819 -0.5141  0.0470 -0.1971
 2252SOL    HW2 8198   7.893   3.451   6.709  0.3156  0.2784  0.6008
 2253SOL     OW 8199   2.229   2.552   5.800  0.3446  0.8105 -0.0833
 2253SOL    HW1 8200   2.300   2.609   5.770  0.1128  0.4766 -1.3461
 2253SOL    HW2 8201   2.160   2.563   5.734 -0.4511  0.5041  0.6791
 2254SOL     OW 8202   2.134   2.487   7.773  0.1455  0.4996 -0.4830
 2254SOL    HW1 8203   2.194   2.502   7.846  0.6479  1.0893 -1.0060
 2254SOL    HW2 8204   2.191   2.463   7.700 -0.2900  0.6531 -0.8752
 2255SOL     OW 8205   2.334   0.747   7.573 -0.3665 -0.2344 -0.4449
 2255SOL    HW1 8206   2.285   0.795   7.506 -0.6993  0.6404  0.4129
 2255SOL    HW2 8207   2.426   0.754   7.546 -0.3637  1.2813 -0.1053
 2256SOL     OW 8208   2.409   3.912   8.830 -0.2982 -0.0035 -0.6843
 2256SOL    HW1 8209   2.459   3.870   8.900  0.8622  0.7298 -1.0474
 2256SOL    HW2 8210   2.346   3.968   8.876 -2.2926 -2.4956 -0.1728
 2257SOL     OW 8211   2.012   2.247   6.848 -0.0330  0.4664  0.2968
 2257SOL    HW1 8212   2.025   2.309   6.920  0.8449  2.1117 -1.1861
 2257SOL    HW2 8213   2.012   2.302   6.770  0.3179 -1.3891 -1.0621
 2258SOL     OW 8214   1.134   1.916   7.435 -0.3050  0.4656  0.9945
 2258SOL    HW1 8215   1.193   1.986   7.461 -0.3309  0.8009  0.1753
 2258SOL    HW2 8216   1.074   1.907   7.508  0.2443  0.6871  1.4826
 2259SOL     OW 8217   7.788   2.256   5.654  0.3013  0.1390  0.4798
 2259SOL    HW1 8218   7.792   2.167   5.619  2.2587  1.1731 -2.3072
 2259SOL    HW2 8219   7.710   2.294   5.612  0.3615  0.1876  0.4110
 2260SOL     OW 8220   0.251   2.667   6.004 -0.1626  0.2473 -0.0595
 2260SOL    HW1 8221   0.305   2.623   6.070 -1.0184 -0.1805  0.3727
 2260SOL    HW2 8222   0.307   2.738   5.972  0.2724  0.4890  1.1483
 2261SOL     OW 8223   7.300   3.374   6.486 -0.4482  0.2354 -0.1856
 2261SOL    HW1 8224   7.301   3.469   6.478  0.2259  0.2662  0.1507
 2261SOL    HW2 8225   7.393   3.350   6.491 -0.4211 -0.6922 -3.0683
 2262SOL     OW 8226   1.854   3.248   8.507 -0.3108  0.1050  0.4725
 2262SOL    HW1 8227   1.945   3.233   8.529  0.3465  1.1280 -1.3214
 2262SOL    HW2 8228   1.820   3.303   8.577  0.4637 -0.2311  1.1132
 2263SOL     OW 8229   1.375   1.545   5.932 -0.1932 -0.4393  0.2372
 2263SOL    HW1 8230   1.417   1.614   5.983 -1.0480 -0.8330  1.5135
 2263SOL    HW2 8231   1.373   1.469   5.990  0.0194 -1.3201 -0.8665
 2264SOL     OW 8232   0.998   4.582   8.095 -0.1001 -0.4847  0.3880
 2264SOL    HW1 8233   1.025   4.500   8.054 -3.3789 -1.3466 -0.3482
 2264SOL    HW2 8234   0.996   4.562   8.189  0.2845 -0.8305  0.3264
 2265SOL     OW 8235   4.353   1.580   8.459 -0.3637 -0.2286 -0.0947
 2265SOL    HW1 8236   4.278   1.595   8.401 -0.5966  0.1812  0.3074
 2265SOL    HW2 8237   4.385   1.667   8.480  0.5287 -0.4116 -0.6320
 2266SOL     OW 8238   0.452   3.200   4.623  0.2718 -0.2378  0.1236
 2266SOL    HW1 8239   0.538   3.175   4.659  0.3170 -1.6585 -0.8853
 2266SOL    HW2 8240   0.467   3.208   4.529 -0.7039 -0.4360 -0.0568
 2267SOL     OW 8241   0.283   2.348   5.417  0.8346  0.0019 -0.2034
 2267SOL    HW1 8242   0.341   2.423   5.406  0.2732  0.3660 -0.7849
 2267SOL    HW2 8243   0.282   2.306   5.331 -1.4252  1.2485 -0.8779
 2268SOL     OW 8244   1.421   1.548   5.433 -0.0849  0.5518  0.1487
 2268SOL    HW1 8245   1.435   1.477   5.371 -0.6879  0.5040  0.0577
 2268SOL    HW2 8246   1.388   1.505   5.512  2.1375  0.4269  1.0860
 2269SOL     OW 8247   6.998   3.748   6.149 -0.5885 -0.3547  0.1069
 2269SOL    HW1 8248   7.011   3.821   6.088 -0.9469  0.5265  1.0663
 2269SOL    HW2 8249   7.082   3.702   6.148 -0.7273 -0.6465 -1.3927
 2270SOL     OW 8250   1.299   2.772   5.770 -0.4470 -0.1537 -0.6813
 2270SOL    HW1 8251   1.375   2.817   5.734 -1.0252  1.9539  0.5357
 2270SOL    HW2 8252   1.292   2.806   5.859 -0.8583 -2.8589  0.4145
 2271SOL     OW 8253   0.415   2.340   6.980  0.4176 -0.2684  0.2361
 2271SOL    HW1 8254   0.390   2.416   7.031 -0.8948  0.5009 -1.4460
 2271SOL    HW2 8255   0.462   2.376   6.904  0.2696 -1.1680 -0.2987
 2272SOL     OW 8256   0.957   1.655   5.218 -0.0846  0.0383  0.0704
 2272SOL    HW1 8257   1.044   1.676   5.252 -0.2944  0.5717  0.2897
 2272SOL    HW2 8258   0.968   1.569   5.177  0.2330 -0.5010  1.2630
 2273SOL     OW 8259   0.693   3.934   7.427  0.5299  0.0201  0.4227
 2273SOL    HW1 8260   0.599   3.946   7.444  0.0792  0.5557 -2.0532
 2273SOL    HW2 8261   0.735   3.961   7.509 -1.4089  0.9005  1.2077
 2274SOL     OW 8262   2.334   1.286   6.363  0.3155 -0.4861  0.3780
 2274SOL    HW1 8263   2.285   1.249   6.437 -0.2651 -1.5074 -0.4712
 2274SOL    HW2 8264   2.425   1.263   6.380  0.0808 -1.4781  0.3729
 2275SOL     OW 8265   7.650   2.481   6.141 -0.1112  0.0420 -0.0290
 2275SOL    HW1 8266   7.628   2.399   6.098  0.2197 -0.6981  1.1510
 2275SOL    HW2 8267   7.685   2.455   6.226 -2.1739  1.4730  1.3700
 2276SOL     OW 8268   0.421   3.841   8.306 -0.6897 -0.0177  0.7152
 2276SOL    HW1 8269   0.372   3.923   8.315 -0.7050  0.1783 -0.9105
 2276SOL    HW2 8270   0.445   3.818   8.396 -1.6122  1.1912  1.3069
 2277SOL     OW 8271   7.500   2.812   5.535  0.3787 -0.6081 -0.4845
 2277SOL    HW1 8272   7.436   2.741   5.522 -0.7156  0.0532  0.9242
 2277SOL    HW2 8273   7.458   2.869   5.600  1.8731  0.5466 -0.4966
 2278SOL     OW 8274   2.006   4.288   7.516 -0.5655 -0.3520 -0.7197
 2278SOL    HW1 8275   2.056   4.292   7.435 -1.2364  0.9471 -1.1033
 2278SOL    HW2 8276   1.936   4.352   7.504  1.2080  2.4460  2.1148
 2279SOL     OW 8277   1.176   2.727   7.601 -0.3386  0.2543 -0.1014
 2279SOL    HW1 8278   1.138   2.669   7.535  1.8491 -0.9331 -0.3978
 2279SOL    HW2 8279   1.161   2.815   7.567  0.4326 -0.3166 -2.0364
 2280SOL     OW 8280   0.611   1.932   7.746 -0.2679 -0.3102  0.0517
 2280SOL    HW1 8281   0.664   1.871   7.694 -1.2693 -0.4869 -0.7962
 2280SOL    HW2 8282   0.608   1.892   7.833  0.8616 -0.3624  0.0874
 2281SOL     OW 8283   0.658   1.634   7.848 -0.4761  0.0672  0.0872
 2281SOL    HW1 8284   0.668   1.551   7.896  1.8009 -0.6421 -1.4794
 2281SOL    HW2 8285   0.648   1.700   7.917  1.5007 -1.0417  1.5538
 2282SOL     OW 8286   1.895   1.315   7.135 -0.0347  0.6660 -0.7671
 2282SOL    HW1 8287   1.840   1.375   7.185 -0.3982 -1.0498  1.0078
 2282SOL    HW2 8288   1.838   1.242   7.112  0.9934 -0.2615 -0.5150
 2283SOL     OW 8289   1.648   1.452   9.246 -0.9131 -0.0470 -0.1515
 2283SOL    HW1 8290   1.671   1.365   9.213 -0.4279  0.7457 -2.0265
 2283SOL    HW2 8291   1.561   1.441   9.283 -0.9353 -1.2862 -0.5224
 2284SOL     OW 8292   0.470   2.346   8.030 -0.0578 -0.2187 -0.1554
 2284SOL    HW1 8293   0.451   2.273   8.089  1.3241  0.0093  0.6054
 2284SOL    HW2 8294   0.427   2.322   7.948 -0.3557 -1.4671  0.3408
 2285SOL     OW 8295   1.934   1.401   8.352 -0.0092 -0.5612  0.4289
 2285SOL    HW1 8296   1.852   1.401   8.301  0.2368 -1.8007  0.0158
 2285SOL    HW2 8297   1.983   1.475   8.317  0.0790 -1.2836 -1.0502
 2286SOL     OW 8298   2.111   1.838   9.043  0.1328 -0.0049  0.4557
 2286SOL    HW1 8299   2.062   1.776   8.988  0.7152 -0.4943  0.4756
 2286SOL    HW2 8300   2.046   1.873   9.104 -0.2319 -0.4958  0.3547
 2287SOL     OW 8301   0.204   2.934   9.274 -0.0753  0.2057 -0.2454
 2287SOL    HW1 8302   0.119   2.917   9.233 -1.4450 -0.0614  2.4833
 2287SOL    HW2 8303   0.187   3.006   9.334  1.8318  0.6317 -0.1681
 2288SOL     OW 8304   0.761   4.175   8.434 -0.1213 -0.2903  0.7595
 2288SOL    HW1 8305   0.784   4.221   8.515  1.2571 -0.9575  0.7700
 2288SOL    HW2 8306   0.683   4.124   8.457 -0.3802  0.3514  1.3512
 2289SOL     OW 8307   1.126   2.949   9.593 -0.2910  0.3582 -0.4542
 2289SOL    HW1 8308   1.055   3.000   9.556 -0.3935  0.0072 -0.7516
 2289SOL    HW2 8309   1.199   2.960   9.531 -0.6214 -0.6394 -1.0448
 2290SOL     OW 8310   1.767   2.170   8.577  0.5460  0.0362  0.1614
 2290SOL    HW1 8311   1.702   2.101   8.567  0.6229 -0.4465  2.5284
 2290SOL    HW2 8312   1.773   2.209   8.490 -2.4192 -0.3214 -0.3174
 2291SOL     OW 8313   0.656   3.463   8.572 -0.2963  0.0091 -0.0402
 2291SOL    HW1 8314   0.680   3.371   8.570 -0.4164 -0.0341  0.3965
 2291SOL    HW2 8315   0.591   3.470   8.642 -2.0968  0.0101 -1.6453
 2292SOL     OW 8316   0.864   2.065   8.357 -0.1609 -0.2727 -0.0262
 2292SOL    HW1 8317   0.790   2.097   8.305  0.4234 -1.2088 -1.5165
 2292SOL    HW2 8318   0.878   1.976   8.326  0.1257 -0.9416  1.9050
 2293SOL     OW 8319   1.914   1.401   9.529  0.2187  0.2324 -0.1615
 2293SOL    HW1 8320   1.958   1.431   9.609  0.8583  0.8505 -0.7375
 2293SOL    HW2 8321   1.942   1.311   9.518 -1.3803 -0.4985  1.3568
 2294SOL     OW 8322   1.247   3.394   7.708 -0.1428 -0.3506 -0.6062
 2294SOL    HW1 8323   1.298   3.366   7.784  0.2794  0.9828 -0.3596
 2294SOL    HW2 8324   1.171   3.439   7.746  0.7882  1.5906 -0.9166
 2295SOL     OW 8325   1.720   3.886  10.445  0.0459 -0.0034  0.6315
 2295SOL    HW1 8326   1.784   3.841  10.500 -0.5810 -1.0640  0.5136
 2295SOL    HW2 8327   1.709   3.972  10.486  0.3386 -0.4138  1.5851
 2296SOL     OW 8328   0.679   2.787   8.299 -0.2432 -0.3888 -0.0671
 2296SOL    HW1 8329   0.682   2.792   8.203 -1.4112 -1.1782 -0.1643
 2296SOL    HW2 8330   0.749   2.727   8.323  0.2897  0.0929 -0.3906
 2297SOL     OW 8331   7.908   3.422   8.727 -0.1571  0.4039  0.5597
 2297SOL    HW1 8332   7.851   3.347   8.743  0.1960  0.0820  0.3264
 2297SOL    HW2 8333   7.862   3.496   8.766 -0.0689 -0.0943  1.6728
 2298SOL     OW 8334   7.273   2.758   8.817 -0.2770  0.6341 -0.6813
 2298SOL    HW1 8335   7.288   2.848   8.848  0.2069  0.9277 -1.7310
 2298SOL    HW2 8336   7.197   2.729   8.866  1.2843  0.5456  1.8869
 2299SOL     OW 8337   0.813   1.778   8.330 -0.1661  0.7784 -0.1155
 2299SOL    HW1 8338   0.815   1.803   8.423 -0.6255  0.8359 -0.1164
 2299SOL    HW2 8339   0.723   1.749   8.316 -0.1059  0.8038 -0.5526
 2300SOL     OW 8340   1.182   2.734   9.791 -0.1090  0.8810  0.2666
 2300SOL    HW1 8341   1.200   2.807   9.732  0.8996  0.1458 -0.3808
 2300SOL    HW2 8342   1.093   2.707   9.770  0.8216 -0.6011 -2.4160
 2301SOL     OW 8343   0.065   1.371   9.308  0.4537 -0.3044  0.3707
 2301SOL    HW1 8344  -0.006   1.329   9.358  0.0287  1.4127  1.2765
 2301SOL    HW2 8345   0.108   1.298   9.263 -1.8651 -1.4222 -0.2181
 2302SOL     OW 8346   2.233   1.602   8.771 -0.5743  0.0873  0.4942
 2302SOL    HW1 8347   2.176   1.652   8.713  1.0003  2.6331  1.0187
 2302SOL    HW2 8348   2.322   1.629   8.748  0.3650 -2.2936  1.0165
 2303SOL     OW 8349   7.058   2.704   8.973 -0.2967 -0.0399 -0.1687
 2303SOL    HW1 8350   7.073   2.609   8.980  0.4864  0.1410  0.8525
 2303SOL    HW2 8351   6.987   2.720   9.035 -0.2100  0.0875 -0.1032
 2304SOL     OW 8352   2.391   4.143   7.970  0.1763  0.0017  0.3672
 2304SOL    HW1 8353   2.420   4.062   7.927 -0.9888 -0.9293  1.2511
 2304SOL    HW2 8354   2.471   4.182   8.005  0.5556 -1.9556  1.8632
 2305SOL     OW 8355   7.899   1.786   7.627  0.2513  0.2019 -0.2240
 2305SOL    HW1 8356   7.859   1.822   7.706  1.8890  1.1998  0.2107
 2305SOL    HW2 8357   7.836   1.804   7.558 -0.5501  0.6701  0.6031
 2306SOL     OW 8358   1.050   1.916  10.066 -0.5155  0.3236  0.1417
 2306SOL    HW1 8359   1.003   1.898  10.147 -0.4828  0.5325  0.2078
 2306SOL    HW2 8360   1.105   1.992  10.086  1.2859 -1.0628  0.6511
 2307SOL     OW 8361   2.244   1.297   8.256  0.1216 -0.2162  0.1704
 2307SOL    HW1 8362   2.269   1.332   8.341  0.3113 -0.2992  0.1501
 2307SOL    HW2 8363   2.278   1.361   8.193  0.8491 -0.6438  0.1133
 2308SOL     OW 8364   0.992   5.159  10.145 -0.2346 -0.0708 -0.0127
 2308SOL    HW1 8365   0.988   5.136  10.052  0.2753  0.0265 -0.0599
 2308SOL    HW2 8366   1.072   5.211  10.153 -0.1513 -0.2764  0.5224
 2309SOL     OW 8367   1.060   0.420   8.160 -0.5492 -0.0228 -0.8006
 2309SOL    HW1 8368   1.068   0.359   8.233  0.2252 -2.2851 -2.6706
 2309SOL    HW2 8369   1.150   0.443   8.138 -0.8079  1.3707 -0.5396
 2310SOL     OW 8370   7.583   3.248   9.121 -0.3722  0.0509  0.1117
 2310SOL    HW1 8371   7.675   3.274   9.118  0.3559 -2.3519 -0.3636
 2310SOL    HW2 8372   7.558   3.239   9.029  0.0778 -2.8128  0.1740
 2311SOL     OW 8373   2.871   3.104   7.167 -0.0186 -0.0339 -0.3969
 2311SOL    HW1 8374   2.905   3.025   7.126  2.0692  0.4014  0.3891
 2311SOL    HW2 8375   2.898   3.097   7.259 -0.9862  0.9610 -0.0082
 2312SOL     OW 8376   2.450   3.697   9.726  0.8325  0.6374 -0.0648
 2312SOL    HW1 8377   2.423   3.645   9.651  0.3271 -0.1893  0.6752
 2312SOL    HW2 8378   2.368   3.715   9.773  1.0961  1.4732  0.0899
 2313SOL     OW 8379   7.825   2.478   8.914  0.7248 -0.3160  0.4074
 2313SOL    HW1 8380   7.904   2.458   8.964  0.9919 -2.3546 -0.7125
 2313SOL    HW2 8381   7.848   2.458   8.823 -1.2297 -1.6015  0.1387
 2314SOL     OW 8382   1.252   3.086   6.280  0.1551 -0.2011  0.5815
 2314SOL    HW1 8383   1.342   3.074   6.251  0.0321  0.4802 -0.1180
 2314SOL    HW2 8384   1.201   3.089   6.199 -0.3577  0.4961  0.9188
 2315SOL     OW 8385   1.330   3.529   5.993 -0.0632 -0.2154  0.4559
 2315SOL    HW1 8386   1.249   3.576   5.972  0.2091 -0.1137 -0.3949
 2315SOL    HW2 8387   1.400   3.593   5.976  0.2320 -0.5122  0.5490
 2316SOL     OW 8388   0.893   1.451   8.714 -0.0696 -0.3735 -0.4565
 2316SOL    HW1 8389   0.901   1.367   8.667  1.6156 -0.8408  0.5836
 2316SOL    HW2 8390   0.871   1.426   8.803 -1.0141  0.4044 -0.4546
 2317SOL     OW 8391   2.928   1.920   7.039  0.3996 -0.1519 -0.0510
 2317SOL    HW1 8392   2.976   1.902   6.958  2.0936  0.4526  0.7628
 2317SOL    HW2 8393   2.974   1.994   7.078 -1.8686  1.1651  0.2993
 2318SOL     OW 8394   1.142   3.471   7.362 -0.4116 -0.3896 -0.0720
 2318SOL    HW1 8395   1.229   3.451   7.396 -0.4296 -0.4769 -0.0774
 2318SOL    HW2 8396   1.125   3.405   7.296 -0.3063 -0.1139 -0.3778
 2319SOL     OW 8397   1.483   2.111   8.872 -0.3361  0.1415  0.1050
 2319SOL    HW1 8398   1.524   2.047   8.813  0.0824 -0.0203  0.5696
 2319SOL    HW2 8399   1.556   2.151   8.919 -0.6427  0.5377  0.2531
 2320SOL     OW 8400   3.075   1.200   7.481 -0.3845  0.2398  0.5125
 2320SOL    HW1 8401   3.120   1.267   7.429  0.9467 -1.0374 -0.0625
 2320SOL    HW2 8402   3.025   1.250   7.546 -0.7449  1.8243 -0.9031
 2321SOL     OW 8403   2.262   1.982   9.802  0.4531 -0.2929 -0.2879
 2321SOL    HW1 8404   2.218   1.911   9.755 -1.4572  1.0266 -0.6116
 2321SOL    HW2 8405   2.255   1.959   9.894 -1.9947  0.3782 -0.2419
 2322SOL     OW 8406   2.325   1.219   9.736 -0.0541  0.8577 -0.3652
 2322SOL    HW1 8407   2.235   1.207   9.706  0.5216 -1.5297 -1.4324
 2322SOL    HW2 8408   2.333   1.313   9.751 -2.4537  1.2566 -1.0953
 2323SOL     OW 8409   1.272   4.628   8.322 -0.1860 -0.1657 -0.0543
 2323SOL    HW1 8410   1.274   4.589   8.235  1.5868 -0.4234  0.0649
 2323SOL    HW2 8411   1.192   4.592   8.362 -0.3714 -1.0183 -1.1229
 2324SOL     OW 8412   7.666   3.104   8.114  0.4115  0.4543  0.1475
 2324SOL    HW1 8413   7.730   3.038   8.143 -1.1751 -1.3332 -0.1921
 2324SOL    HW2 8414   7.584   3.075   8.152 -0.6545  1.3182 -1.3949
 2325SOL     OW 8415   1.306   2.929   9.983  0.5835 -0.6196  0.0402
 2325SOL    HW1 8416   1.246   3.002   9.965  0.7292  0.0845  2.1302
 2325SOL    HW2 8417   1.252   2.851   9.974 -0.1244 -0.1230 -0.1334
 2326SOL     OW 8418   6.838   2.318   8.437 -0.1176 -0.1179 -0.1522
 2326SOL    HW1 8419   6.890   2.278   8.507 -0.3744  0.8411  0.6026
 2326SOL    HW2 8420   6.856   2.412   8.445 -0.9940  0.0999 -0.6772
 2327SOL     OW 8421   3.013   3.576   9.835  0.4691 -0.6507 -0.1237
 2327SOL    HW1 8422   2.919   3.584   9.848  0.5890  0.6561  0.1007
 2327SOL    HW2 8423   3.035   3.644   9.771  1.2605 -0.9342 -0.1729
 2328SOL     OW 8424   0.615   4.453   8.346  0.1069  0.0004  0.5971
 2328SOL    HW1 8425   0.542   4.415   8.395 -0.8890  1.3224  0.2014
 2328SOL    HW2 8426   0.675   4.485   8.413 -0.5854  0.5619  0.9593
 2329SOL     OW 8427   0.089   1.174   8.823  0.2236 -0.2597  0.3525
 2329SOL    HW1 8428   0.089   1.158   8.917 -1.4381 -0.6598  0.3130
 2329SOL    HW2 8429   0.178   1.153   8.795  1.2211  1.3624  2.0504
 2330SOL     OW 8430   1.590   2.359   6.315  0.0343  0.0850  0.1333
 2330SOL    HW1 8431   1.565   2.446   6.284  0.2922  0.7726  1.7199
 2330SOL    HW2 8432   1.570   2.300   6.242 -4.1782  0.8326  0.4372
 2331SOL     OW 8433   0.142   2.303   8.045  0.0886  0.4460  0.1387
 2331SOL    HW1 8434   0.160   2.380   8.099  0.2348  0.0103  0.7174
 2331SOL    HW2 8435   0.166   2.330   7.956  0.3590  0.9879  0.3708
 2332SOL     OW 8436   2.532   1.121   7.098 -0.3548  0.4582  0.1023
 2332SOL    HW1 8437   2.533   1.027   7.082 -0.3611  0.8444 -2.8772
 2332SOL    HW2 8438   2.621   1.142   7.127  0.0178 -0.3199 -0.4541
 2333SOL     OW 8439   0.093   5.481   9.117 -0.2581 -0.5887  0.1691
 2333SOL    HW1 8440   0.119   5.432   9.196  0.1379 -2.0507 -0.8216
 2333SOL    HW2 8441   0.003   5.452   9.100 -0.2262 -0.5339 -0.0975
 2334SOL     OW 8442   1.612   2.741   9.683  0.2021 -0.2976 -0.3780
 2334SOL    HW1 8443   1.701   2.757   9.653 -0.1526 -0.1914 -1.3936
 2334SOL    HW2 8444   1.576   2.829   9.700  1.2741 -0.3714  3.1250
 2335SOL     OW 8445   0.738   3.091   5.634  0.4159 -0.1727  0.3885
 2335SOL    HW1 8446   0.732   3.056   5.723 -2.3686  0.4967  0.5663
 2335SOL    HW2 8447   0.656   3.064   5.592  0.2432  2.1399 -0.9531
 2336SOL     OW 8448   1.930   3.662   8.584  0.8092 -0.6369  0.2211
 2336SOL    HW1 8449   1.853   3.682   8.530  0.8582 -0.6887  0.1320
 2336SOL    HW2 8450   1.897   3.665   8.674  0.4645 -1.6564  0.1420
 2337SOL     OW 8451   2.273   2.923   8.291  0.1892 -0.1793  0.8434
 2337SOL    HW1 8452   2.296   2.875   8.212 -0.4134 -0.8575  1.0622
 2337SOL    HW2 8453   2.215   2.863   8.339 -0.5107  0.7351  1.1691
 2338SOL     OW 8454   1.124   2.987   8.618 -0.3438 -0.3385 -0.4620
 2338SOL    HW1 8455   1.160   3.006   8.705 -0.8123 -1.0402 -0.1098
 2338SOL    HW2 8456   1.097   3.073   8.585  3.2810  0.5618 -1.5452
 2339SOL     OW 8457   2.855   2.791   6.627  0.1044 -0.4803  0.4084
 2339SOL    HW1 8458   2.928   2.834   6.670  0.5002  0.2576 -0.9178
 2339SOL    HW2 8459   2.853   2.831   6.539 -1.5290 -0.8869  0.2299
 2340SOL     OW 8460   7.867   4.009   7.527 -0.2610  0.0431  0.1537
 2340SOL    HW1 8461   7.883   4.015   7.433 -1.4896 -0.0991 -0.0788
 2340SOL    HW2 8462   7.791   3.951   7.535 -0.1873  0.0676  1.2386
 2341SOL     OW 8463   1.010   2.706  10.097  0.2039  0.0835 -0.3812
 2341SOL    HW1 8464   0.918   2.683  10.109  0.4936 -1.1065 -0.3710
 2341SOL    HW2 8465   1.054   2.623  10.076  1.2776  0.6266 -0.3725
 2342SOL     OW 8466   7.934   3.808   8.849 -0.2627  0.1748  0.1100
 2342SOL    HW1 8467   7.859   3.802   8.789  2.1840 -1.3919 -3.0783
 2342SOL    HW2 8468   7.908   3.754   8.925 -2.9820  1.1457 -0.0162
 2343SOL     OW 8469   1.482   3.497   7.102 -0.0103  0.1146 -0.3919
 2343SOL    HW1 8470   1.567   3.485   7.061  0.0818  1.2381 -0.5544
 2343SOL    HW2 8471   1.497   3.480   7.195  0.1751 -0.6494 -0.5600
 2344SOL     OW 8472   1.448   2.935   8.159  0.4144 -0.2738 -0.0554
 2344SOL    HW1 8473   1.437   2.862   8.098  0.3260  0.8619 -1.4594
 2344SOL    HW2 8474   1.463   2.894   8.244 -0.7120 -1.9195 -0.6049
 2345SOL     OW 8475   2.158   2.342  10.230  0.3362 -0.6579  0.2009
 2345SOL    HW1 8476   2.242   2.363  10.271  0.0802 -0.8997  0.8609
 2345SOL    HW2 8477   2.093   2.391  10.281  0.2128  0.9275 -1.3606
 2346SOL     OW 8478   0.822   2.863   7.696 -0.0797  0.2162  0.3162
 2346SOL    HW1 8479   0.883   2.891   7.627  0.6815 -2.4260 -0.2101
 2346SOL    HW2 8480   0.738   2.899   7.670  0.1400 -0.8854 -2.1925
 2347SOL     OW 8481   1.926   1.154   9.438 -0.3702  0.2874  0.1050
 2347SOL    HW1 8482   1.983   1.087   9.475 -0.7919  0.1558  0.5249
 2347SOL    HW2 8483   1.837   1.122   9.455 -0.5741  0.1315 -1.1922
 2348SOL     OW 8484   1.621   3.538   8.577  0.4451 -0.0210  0.7454
 2348SOL    HW1 8485   1.628   3.505   8.666 -1.2820 -0.0348  0.8968
 2348SOL    HW2 8486   1.577   3.623   8.586 -0.6244 -0.4566 -0.1569
 2349SOL     OW 8487   3.627   2.773   8.556  0.1761  0.8085  0.1132
 2349SOL    HW1 8488   3.585   2.784   8.471  0.0246 -1.2669 -0.1513
 2349SOL    HW2 8489   3.720   2.767   8.537  0.2334  1.3061  0.2205
 2350SOL     OW 8490   1.841   2.971   8.344  0.1008  0.2540 -0.0026
 2350SOL    HW1 8491   1.815   3.062   8.332  0.6776  0.4939  0.5464
 2350SOL    HW2 8492   1.893   2.950   8.266  0.5057  0.5914  0.1755
 2351SOL     OW 8493   1.170   2.063   8.319 -0.1511 -0.0285 -0.5928
 2351SOL    HW1 8494   1.175   2.063   8.415 -0.1926  0.7559 -0.5825
 2351SOL    HW2 8495   1.145   1.973   8.297  0.7191 -0.4580  0.0762
 2352SOL     OW 8496   7.432   0.740   7.679 -0.0018  0.3454 -0.4596
 2352SOL    HW1 8497   7.373   0.697   7.741 -0.7988 -1.1255 -2.1372
 2352SOL    HW2 8498   7.388   0.823   7.659  0.7664  1.3110  1.6334
 2353SOL     OW 8499   0.291   3.575   6.386  0.4962 -0.1944 -0.1621
 2353SOL    HW1 8500   0.375   3.577   6.340 -0.0409  0.3516 -1.1503
 2353SOL    HW2 8501   0.312   3.543   6.474  1.4888 -1.7542 -0.9182
 2354SOL     OW 8502   7.071   2.807   7.763 -0.1353  0.1310  0.5434
 2354SOL    HW1 8503   6.983   2.801   7.800 -0.1000 -2.2935  0.4420
 2354SOL    HW2 8504   7.077   2.896   7.728 -2.3670  0.4977  0.9446
 2355SOL     OW 8505   1.797   1.043   7.829  0.1130 -0.3939 -0.4368
 2355SOL    HW1 8506   1.853   0.966   7.816 -0.8759 -1.0316 -1.0335
 2355SOL    HW2 8507   1.770   1.068   7.740 -0.5924 -0.1221 -0.1485
 2356SOL     OW 8508   1.295   0.087   8.842  0.0360  0.2367  0.2057
 2356SOL    HW1 8509   1.217   0.058   8.795 -1.4646  1.0647  2.0447
 2356SOL    HW2 8510   1.271   0.172   8.878  2.5554  1.5143 -0.8726
 2357SOL     OW 8511   0.994   3.619   7.013  0.6653  0.1931 -0.6256
 2357SOL    HW1 8512   1.076   3.575   6.992  0.2734  0.3937 -2.8741
 2357SOL    HW2 8513   1.016   3.712   7.014  0.4761  0.2563 -1.3637
 2358SOL     OW 8514   6.977   2.210   7.700  0.1116 -0.1737 -0.6303
 2358SOL    HW1 8515   6.938   2.294   7.676 -0.3000 -0.4073 -0.7921
 2358SOL    HW2 8516   6.917   2.174   7.766 -0.8612 -1.2719 -2.0591
 2359SOL     OW 8517   1.629   2.670   8.644 -0.2834 -0.0874  0.1484
 2359SOL    HW1 8518   1.653   2.631   8.728  3.1205 -0.2116 -0.7547
 2359SOL    HW2 8519   1.582   2.600   8.598 -1.8091 -0.1509  1.7102
 2360SOL     OW 8520   1.263   3.707   6.991 -0.0726 -0.1479 -0.1700
 2360SOL    HW1 8521   1.252   3.774   6.923  0.9156  0.6188  0.4073
 2360SOL    HW2 8522   1.351   3.672   6.977 -0.4610 -1.1337 -0.2726
 2361SOL     OW 8523   2.137   2.750   8.451  0.1476 -0.1296  0.1920
 2361SOL    HW1 8524   2.075   2.678   8.459  0.0677  0.0284  1.0024
 2361SOL    HW2 8525   2.122   2.804   8.528  0.5965  0.4574 -0.1219
 2362SOL     OW 8526   1.896   2.646   9.323  0.5342 -0.5570 -0.0018
 2362SOL    HW1 8527   1.900   2.664   9.417 -1.1153 -1.5528  0.2889
 2362SOL    HW2 8528   1.816   2.688   9.293 -0.1833 -2.1832 -0.4760
 2363SOL     OW 8529   2.089   1.266   6.916 -0.0510  0.2713 -0.6150
 2363SOL    HW1 8530   2.178   1.285   6.945 -0.5154  2.6724 -0.5502
 2363SOL    HW2 8531   2.037   1.262   6.997 -0.7330  3.5842 -0.7046
 2364SOL     OW 8532   2.045   1.721   8.629 -0.2727 -0.0190 -0.0384
 2364SOL    HW1 8533   2.014   1.684   8.546  0.4028 -0.1928 -0.2217
 2364SOL    HW2 8534   2.014   1.811   8.628 -0.3004 -0.0289 -0.4654
 2365SOL     OW 8535   1.276   4.459   8.103 -0.4392  0.1754 -0.0180
 2365SOL    HW1 8536   1.314   4.446   8.015  0.2523 -1.4018  0.4719
 2365SOL    HW2 8537   1.202   4.398   8.106  0.8818 -1.4601  1.2242
 2366SOL     OW 8538   2.318   4.089   7.636  0.1306 -0.3107  0.2380
 2366SOL    HW1 8539   2.245   4.136   7.677  1.2913  0.5045  1.4626
 2366SOL    HW2 8540   2.377   4.158   7.607  1.2156 -0.9761  0.7995
 2367SOL     OW 8541   2.116   2.355   9.940 -1.1554  0.6718 -0.3746
 2367SOL    HW1 8542   2.210   2.367   9.927 -1.0031  0.2867  0.3027
 2367SOL    HW2 8543   2.108   2.327  10.032 -2.0180  1.8104 -0.0790
 2368SOL     OW 8544   0.959   2.868   8.188  0.1840  0.5130  0.5121
 2368SOL    HW1 8545   1.043   2.823   8.202 -0.6700 -0.9202  1.3723
 2368SOL    HW2 8546   0.932   2.896   8.276 -0.0300  1.3667  0.1812
 2369SOL     OW 8547   2.703   4.287   7.094 -0.3883  0.0839  0.4106
 2369SOL    HW1 8548   2.709   4.193   7.079 -0.3450 -0.2068  2.0278
 2369SOL    HW2 8549   2.794   4.316   7.098 -0.3768  0.6449 -2.3486
 2370SOL     OW 8550   1.954   4.438   7.781 -0.2282 -0.0511  0.2927
 2370SOL    HW1 8551   1.977   4.350   7.809 -0.3308 -0.2122 -0.1319
 2370SOL    HW2 8552   2.038   4.485   7.777 -0.2477  0.0992  1.2746
 2371SOL     OW 8553   5.984   1.946   6.131  0.0808  0.0409 -0.9162
 2371SOL    HW1 8554   6.056   2.005   6.110 -0.0422  0.3993 -0.3546
 2371SOL    HW2 8555   5.910   1.980   6.083 -0.0973  0.6125 -0.2590
 2372SOL     OW 8556   2.686   4.590   9.377 -0.0379  0.3234  0.3463
 2372SOL    HW1 8557   2.728   4.506   9.356  0.4421  0.5597  0.3678
 2372SOL    HW2 8558   2.612   4.594   9.316 -0.4050 -0.3809  0.7275
 2373SOL     OW 8559   1.958   3.296   9.955  0.5850  0.4325  0.4312
 2373SOL    HW1 8560   2.040   3.346   9.952  0.1582  1.1485  0.6589
 2373SOL    HW2 8561   1.985   3.209   9.987  1.2954  0.5711  0.2309
 2374SOL     OW 8562   0.504   3.004  10.241 -0.5791 -0.2329  0.1116
 2374SOL    HW1 8563   0.458   3.068  10.296  0.1684  0.3705  0.0627
 2374SOL    HW2 8564   0.444   2.985  10.170 -0.8330  0.3994  0.1493
 2375SOL     OW 8565   3.164   4.060   8.824  0.0703 -0.3990 -0.1488
 2375SOL    HW1 8566   3.172   4.060   8.919  0.1729  2.9139 -0.0610
 2375SOL    HW2 8567   3.245   4.100   8.793  0.1377 -1.6433 -1.6939
 2376SOL     OW 8568   0.867   4.016   7.972 -0.3492 -0.2857 -0.2017
 2376SOL    HW1 8569   0.803   3.986   7.908  0.6177 -3.5212  0.1809
 2376SOL    HW2 8570   0.816   4.034   8.051 -1.0667 -0.0987 -0.6922
 2377SOL     OW 8571   0.675   0.183   8.788  0.1272 -0.0844 -0.1493
 2377SOL    HW1 8572   0.739   0.223   8.729 -0.4908 -0.1046 -0.8300
 2377SOL    HW2 8573   0.659   0.096   8.752 -1.3801  0.4472 -0.8237
 2378SOL     OW 8574   1.973   2.669   8.816 -0.4410 -0.0152 -0.7287
 2378SOL    HW1 8575   2.017   2.753   8.802  1.6087 -0.5851  1.5984
 2378SOL    HW2 8576   2.025   2.606   8.766  0.0576 -0.3738  0.2342
 2379SOL     OW 8577   1.442   2.400   7.890 -0.4752  0.6902  0.0974
 2379SOL    HW1 8578   1.511   2.352   7.935 -0.7429 -0.7412 -0.9477
 2379SOL    HW2 8579   1.482   2.428   7.807 -1.7750 -2.5442 -1.8258
 2380SOL     OW 8580   2.108   3.129   8.364 -0.1803 -0.1930 -0.5178
 2380SOL    HW1 8581   2.060   3.077   8.428 -1.1407 -0.2799 -1.3053
 2380SOL    HW2 8582   2.177   3.071   8.332  0.1983 -0.2066  0.2919
 2381SOL     OW 8583   0.126   0.948   8.294 -0.3505 -0.2169 -0.5728
 2381SOL    HW1 8584   0.034   0.958   8.318 -0.2623  0.4298 -0.4986
 2381SOL    HW2 8585   0.143   1.019   8.232 -0.0510 -0.6777 -1.0317
 2382SOL     OW 8586   7.433   1.002   9.170 -0.8342  0.5242  0.3614
 2382SOL    HW1 8587   7.349   0.971   9.138 -0.0208 -2.4403  0.7619
 2382SOL    HW2 8588   7.414   1.037   9.257 -1.4578 -2.0723  1.3684
 2383SOL     OW 8589   1.069   3.011   7.572 -0.2398 -0.7796 -0.0980
 2383SOL    HW1 8590   1.163   3.000   7.558 -0.0440  0.0872  0.5017
 2383SOL    HW2 8591   1.036   3.041   7.487  0.2290  0.1438  0.0390
 2384SOL     OW 8592   0.662   0.883   8.920 -0.4627  0.5295 -0.0070
 2384SOL    HW1 8593   0.572   0.852   8.934 -0.2104  0.0027  0.5001
 2384SOL    HW2 8594   0.711   0.804   8.897  0.0899  0.6236  0.8051
 2385SOL     OW 8595   2.327   2.211   9.367 -0.6425 -0.5940  0.4157
 2385SOL    HW1 8596   2.246   2.169   9.393 -0.7922 -1.2379 -1.0316
 2385SOL    HW2 8597   2.333   2.289   9.424 -3.0396  0.3287 -0.4819
 2386SOL     OW 8598   2.202   3.568   7.156  0.6604  0.1664 -0.4724
 2386SOL    HW1 8599   2.116   3.527   7.149  0.6150  0.2818 -0.6241
 2386SOL    HW2 8600   2.212   3.589   7.249  0.0396  1.1698 -0.6203
 2387SOL     OW 8601   1.144   2.676   9.156 -0.0553  0.4231  0.3347
 2387SOL    HW1 8602   1.158   2.581   9.161 -0.6225  0.3095 -0.1211
 2387SOL    HW2 8603   1.059   2.690   9.199 -1.8148  0.2304 -2.8228
 2388SOL     OW 8604   0.609   1.949   9.248  0.3380  0.2194  0.2508
 2388SOL    HW1 8605   0.644   1.916   9.331  0.6878  2.8027  1.2427
 2388SOL    HW2 8606   0.680   2.004   9.213 -1.1159  2.1174  0.1298
 2389SOL     OW 8607   0.809   2.994   7.942 -0.3949 -0.4083 -0.1457
 2389SOL    HW1 8608   0.810   2.965   7.850 -1.3157  0.5609 -0.4801
 2389SOL    HW2 8609   0.751   3.070   7.942  1.0654  0.7461  0.9147
 2390SOL     OW 8610   2.236   2.020   8.193  0.1449  0.2112  0.0633
 2390SOL    HW1 8611   2.323   2.009   8.230 -0.0666 -0.8708  0.2835
 2390SOL    HW2 8612   2.183   2.054   8.264  0.2513  0.2729  0.1123
 2391SOL     OW 8613   1.371   7.601  11.355 -0.2370  0.2753  0.3660
 2391SOL    HW1 8614   1.366   7.595  11.259  0.9034 -1.4050  0.3754
 2391SOL    HW2 8615   1.289   7.563  11.386 -1.1055  1.8302  0.0721
 2392SOL     OW 8616   0.199   3.405   7.819  0.4805 -0.6119  0.0615
 2392SOL    HW1 8617   0.283   3.389   7.861  0.8987 -0.9319 -0.8720
 2392SOL    HW2 8618   0.213   3.481   7.763  0.1182 -0.6041 -0.0259
 2393SOL     OW 8619   2.041   3.718   8.852 -0.2582  0.8696  0.0271
 2393SOL    HW1 8620   2.079   3.734   8.766  1.4822  0.3930  0.6562
 2393SOL    HW2 8621   2.013   3.627   8.849  0.6895  0.5546  0.2446
 2394SOL     OW 8622   0.245   4.174   8.676 -0.1826  0.0186  0.3061
 2394SOL    HW1 8623   0.212   4.227   8.749 -0.2794  0.6892 -0.2137
 2394SOL    HW2 8624   0.177   4.109   8.661 -0.4028  0.2085  0.4761
 2395SOL     OW 8625   1.147   2.547   7.809 -0.0178 -0.4719  0.5193
 2395SOL    HW1 8626   1.168   2.609   7.739  2.0421 -0.5957  0.9741
 2395SOL    HW2 8627   1.052   2.554   7.819 -0.0438  1.4156 -0.5400
 2396SOL     OW 8628   1.676   1.071   8.977 -0.0583  0.5592 -0.1732
 2396SOL    HW1 8629   1.761   1.100   8.945  0.0093 -0.4748 -0.9979
 2396SOL    HW2 8630   1.612   1.121   8.926 -0.0009  2.5661  1.5964
 2397SOL     OW 8631   0.779   1.744   8.626 -0.2835 -0.0648  0.3753
 2397SOL    HW1 8632   0.815   1.780   8.707  0.3044 -0.1456  0.1568
 2397SOL    HW2 8633   0.814   1.655   8.623  0.8005  0.3732 -0.6353
 2398SOL     OW 8634   1.519   0.887   8.807  0.4218 -0.3900  0.4515
 2398SOL    HW1 8635   1.447   0.905   8.868  1.5169 -0.1910  1.7595
 2398SOL    HW2 8636   1.596   0.878   8.864  1.3112 -1.2828 -0.8412
 2399SOL     OW 8637   2.581   3.379   8.631 -0.7199  0.2109 -0.2178
 2399SOL    HW1 8638   2.548   3.398   8.543  0.0971  2.0350 -0.1878
 2399SOL    HW2 8639   2.511   3.410   8.689 -0.0268  1.8973 -0.2074
 2400SOL     OW 8640   2.202   1.495   9.497 -0.0910 -0.2655 -0.1648
 2400SOL    HW1 8641   2.158   1.498   9.582 -0.5715 -1.2068 -0.3664
 2400SOL    HW2 8642   2.165   1.568   9.447  0.0418  0.1627  0.3537
 2401SOL     OW 8643   2.481   1.138   8.665 -0.2387 -0.1179 -0.2174
 2401SOL    HW1 8644   2.535   1.110   8.591  0.2236  0.3696 -0.0764
 2401SOL    HW2 8645   2.541   1.190   8.719 -1.5393  2.9970 -1.5387
 2402SOL     OW 8646   1.020   2.992   6.657 -0.3412 -0.0055 -0.0375
 2402SOL    HW1 8647   1.065   3.041   6.725 -0.0724  2.0346 -1.5740
 2402SOL    HW2 8648   0.927   3.005   6.675 -0.2762  0.1930  0.1545
 2403SOL     OW 8649   2.392   2.657   8.439 -0.1955 -0.0739  0.8159
 2403SOL    HW1 8650   2.376   2.624   8.351 -0.4979  1.6342  0.1955
 2403SOL    HW2 8651   2.307   2.688   8.470 -0.1631 -0.9577  1.8631
 2404SOL     OW 8652   1.818   1.884   9.782  0.5294 -0.0057 -0.4361
 2404SOL    HW1 8653   1.785   1.963   9.825  2.5523  0.4216  0.4430
 2404SOL    HW2 8654   1.787   1.892   9.691 -0.2287  1.2289 -0.1014
 2405SOL     OW 8655   2.584   2.264   8.096 -0.0161 -0.0458  0.0762
 2405SOL    HW1 8656   2.574   2.213   8.176 -1.6778  1.2449  0.7383
 2405SOL    HW2 8657   2.576   2.355   8.124  0.8409  0.5158 -1.3657
 2406SOL     OW 8658   1.547   2.678   7.508 -0.2224  0.0386  0.4893
 2406SOL    HW1 8659   1.532   2.755   7.563  1.0814  0.6783 -0.0063
 2406SOL    HW2 8660   1.579   2.611   7.569  1.1317  0.7132  0.5559
 2407SOL     OW 8661   1.781   3.572   6.874  0.4794 -0.1122 -0.1522
 2407SOL    HW1 8662   1.715   3.632   6.909 -0.4418 -0.7814 -0.6963
 2407SOL    HW2 8663   1.835   3.548   6.950 -0.9181 -0.8337  0.6365
 2408SOL     OW 8664   1.435   2.294   8.293 -0.6654 -0.3439 -0.4438
 2408SOL    HW1 8665   1.520   2.295   8.249 -1.2334 -0.2376 -1.5589
 2408SOL    HW2 8666   1.378   2.245   8.234 -1.8958  1.3258 -0.6928
 2409SOL     OW 8667   2.156   3.401   6.886  0.7723  0.2432  0.0843
 2409SOL    HW1 8668   2.177   3.417   6.794  1.8045  1.2838  0.4784
 2409SOL    HW2 8669   2.188   3.479   6.932 -0.1567 -0.0421  1.2747
 2410SOL     OW 8670   7.674   1.715   8.944  0.1449  0.1069 -0.1847
 2410SOL    HW1 8671   7.672   1.623   8.917 -1.6329 -0.6767  2.2398
 2410SOL    HW2 8672   7.760   1.726   8.985  0.9933  0.0237 -1.8636
 2411SOL     OW 8673   0.802   1.620   9.369  0.6088  0.3084  0.3097
 2411SOL    HW1 8674   0.727   1.563   9.384  1.0476 -0.0242  1.3516
 2411SOL    HW2 8675   0.850   1.618   9.452  2.0069  0.1598 -0.4828
 2412SOL     OW 8676   2.648   1.790   9.414 -0.0827 -0.3911 -0.1944
 2412SOL    HW1 8677   2.573   1.731   9.423 -2.0301  1.7791 -1.0244
 2412SOL    HW2 8678   2.626   1.846   9.340  1.2229  1.9171  1.0230
 2413SOL     OW 8679   6.908   4.124   9.091  0.3124 -0.2411 -0.1851
 2413SOL    HW1 8680   6.951   4.038   9.098 -0.4872 -0.5009  2.7979
 2413SOL    HW2 8681   6.973   4.185   9.126 -0.2879 -0.1018  0.7083
 2414SOL     OW 8682   0.371   4.290   9.120  0.3108 -0.1035 -0.2634
 2414SOL    HW1 8683   0.341   4.322   9.205  1.5837 -0.3976  0.3090
 2414SOL    HW2 8684   0.304   4.227   9.094  0.8383 -1.4446  1.4280
 2415SOL     OW 8685   1.526   1.988   8.240 -0.4534  0.2234 -0.1822
 2415SOL    HW1 8686   1.435   1.976   8.213 -0.4658  1.9895 -1.1365
 2415SOL    HW2 8687   1.520   2.044   8.317 -0.1768  1.9663 -1.3567
 2416SOL     OW 8688   2.643   2.523   8.163  0.0757 -0.0601 -0.2892
 2416SOL    HW1 8689   2.736   2.539   8.148  0.0853 -0.4198 -0.6166
 2416SOL    HW2 8690   2.638   2.500   8.256  0.0014  2.2686  0.3682
 2417SOL     OW 8691   7.142   1.719   8.324 -0.2305 -0.3496 -0.1185
 2417SOL    HW1 8692   7.233   1.702   8.349  0.2941 -0.1037 -1.7153
 2417SOL    HW2 8693   7.091   1.655   8.374  0.9408 -1.2653 -0.0448
 2418SOL     OW 8694   1.576   2.833   7.768  0.6139  0.1748 -0.2024
 2418SOL    HW1 8695   1.668   2.805   7.770  0.3562 -0.7378 -0.2965
 2418SOL    HW2 8696   1.541   2.807   7.853  0.8804  2.1960  0.5720
 2419SOL     OW 8697   1.982   1.591   8.925 -0.2804  0.0398 -0.2306
 2419SOL    HW1 8698   2.029   1.548   8.997  0.6369  1.4996  0.1012
 2419SOL    HW2 8699   2.049   1.605   8.858 -0.1467  2.1725  0.2559
 2420SOL     OW 8700   2.382   1.922   9.003 -0.4421  0.0177  0.3528
 2420SOL    HW1 8701   2.385   1.888   8.914  0.0690  0.5561  0.1594
 2420SOL    HW2 8702   2.292   1.904   9.033 -0.1607 -1.6306  0.3217
 2421SOL     OW 8703   7.219   3.778   7.577  0.2006  0.2380  0.3002
 2421SOL    HW1 8704   7.252   3.723   7.506 -1.2326 -0.5500  0.2066
 2421SOL    HW2 8705   7.290   3.839   7.595  1.2701 -0.6917 -0.6030
 2422SOL     OW 8706   0.852   2.050   9.479  0.4296  0.0723 -0.1352
 2422SOL    HW1 8707   0.928   2.002   9.512  0.6072 -0.0832 -0.7667
 2422SOL    HW2 8708   0.777   2.004   9.516  0.6265 -0.0455  0.1242
 2423SOL     OW 8709   2.580   1.932   7.363 -0.2666  0.2187  0.5860
 2423SOL    HW1 8710   2.492   1.970   7.361  0.4450  1.9796 -1.2548
 2423SOL    HW2 8711   2.590   1.891   7.277  0.6846  0.0176  0.7807
 2424SOL     OW 8712   1.484   0.946   7.942  0.4759 -0.0009 -0.4732
 2424SOL    HW1 8713   1.490   1.026   7.890 -0.7834  0.8017  0.5560
 2424SOL    HW2 8714   1.517   0.971   8.029  0.7187 -0.7875 -0.3309
 2425SOL     OW 8715   2.079   1.718   9.343 -0.2932 -0.9056  1.1771
 2425SOL    HW1 8716   2.101   1.777   9.415  0.4477  1.2354 -0.6596
 2425SOL    HW2 8717   1.992   1.748   9.314  0.5925  0.2085 -0.5299
 2426SOL     OW 8718   1.083   4.257   8.122 -0.4590 -0.2502 -0.8710
 2426SOL    HW1 8719   0.993   4.242   8.150 -0.1631 -0.8600 -0.2102
 2426SOL    HW2 8720   1.131   4.182   8.157  0.6494  1.0278  0.4273
 2427SOL     OW 8721   0.673   1.478   8.093 -0.1175  0.1483  0.0381
 2427SOL    HW1 8722   0.619   1.406   8.127  0.7196  0.5892  2.5742
 2427SOL    HW2 8723   0.653   1.552   8.150  1.8914  0.7796  0.0179
 2428SOL     OW 8724   1.923   2.531   8.507 -0.2903  0.0639 -0.0798
 2428SOL    HW1 8725   1.914   2.456   8.449 -0.6205 -0.1212  0.2112
 2428SOL    HW2 8726   1.859   2.594   8.474 -2.5150 -1.1184  1.7762
 2429SOL     OW 8727   0.711   4.639   9.472 -0.1185 -0.7186  0.2718
 2429SOL    HW1 8728   0.676   4.677   9.392  1.2755 -0.0971 -0.0669
 2429SOL    HW2 8729   0.697   4.545   9.462 -0.7928 -0.5664 -0.2783
 2430SOL     OW 8730   0.306   4.159   9.874  0.6146  0.1295  0.1137
 2430SOL    HW1 8731   0.222   4.184   9.835  0.3320  1.0600  1.2401
 2430SOL    HW2 8732   0.294   4.069   9.902  0.1728  0.0820 -0.2168
 2431SOL     OW 8733   0.511   4.072   8.613 -0.7888 -1.0753 -0.0206
 2431SOL    HW1 8734   0.440   4.124   8.650 -0.0591  1.0432 -1.4108
 2431SOL    HW2 8735   0.585   4.086   8.672 -0.3213  0.3110 -0.8954
 2432SOL     OW 8736   2.166   1.630   6.977 -0.1757 -0.1912 -0.1661
 2432SOL    HW1 8737   2.078   1.593   6.971  0.1430 -1.0724  0.3009
 2432SOL    HW2 8738   2.216   1.563   7.024  0.0126  1.6066  2.3268
 2433SOL     OW 8739   2.061   2.781   7.511  0.4662 -0.2186  0.3395
 2433SOL    HW1 8740   2.001   2.805   7.581 -1.0530 -2.5158 -0.0856
 2433SOL    HW2 8741   2.145   2.767   7.555 -0.1948 -0.5584  1.5128
 2434SOL     OW 8742   6.684   0.801   9.918  0.0759 -0.0980 -0.0399
 2434SOL    HW1 8743   6.673   0.829   9.827  0.4914  2.2591  0.5641
 2434SOL    HW2 8744   6.766   0.842   9.946  0.7814 -2.0803  0.9610
 2435SOL     OW 8745   7.656   4.228   7.251 -0.1868 -0.2213  0.1018
 2435SOL    HW1 8746   7.633   4.312   7.289 -1.0964  0.3626 -1.6442
 2435SOL    HW2 8747   7.588   4.168   7.282 -0.6756  0.1481 -0.2416
 2436SOL     OW 8748   1.867   2.220  11.167 -0.2241 -0.1791 -0.2419
 2436SOL    HW1 8749   1.952   2.212  11.123  1.2511 -0.7612  2.5167
 2436SOL    HW2 8750   1.872   2.302  11.214 -0.7706 -0.7142  0.7800
 2437SOL     OW 8751   2.540   3.218   8.102 -0.1163 -0.3399  0.0602
 2437SOL    HW1 8752   2.541   3.259   8.188 -1.1279 -0.0504 -0.0537
 2437SOL    HW2 8753   2.516   3.288   8.042  1.9403 -0.1958 -0.6814
 2438SOL     OW 8754   2.560   2.759   8.062  0.4571  0.0975 -0.5030
 2438SOL    HW1 8755   2.595   2.674   8.089 -0.7607 -0.7119 -1.3730
 2438SOL    HW2 8756   2.633   2.820   8.076  0.2829 -0.3764  3.5784
 2439SOL     OW 8757   2.421   0.997   9.857  0.5475 -0.5389 -0.4887
 2439SOL    HW1 8758   2.377   1.068   9.809  1.6058 -1.0198 -2.2379
 2439SOL    HW2 8759   2.479   1.042   9.918  0.2641  0.0909 -0.6697
 2440SOL     OW 8760   1.915   1.912   9.201  0.4537  0.6132  0.1498
 2440SOL    HW1 8761   1.851   1.903   9.130  0.7989 -0.2150 -0.0794
 2440SOL    HW2 8762   1.881   1.982   9.256 -0.7550  0.0552  0.1477
 2441SOL     OW 8763   2.834   3.290   9.905 -0.0392  0.2428 -0.5884
 2441SOL    HW1 8764   2.925   3.320   9.896  0.6993 -2.3597 -2.9949
 2441SOL    HW2 8765   2.785   3.339   9.840 -0.2313  1.0281  0.1280
 2442SOL     OW 8766   2.635   2.614   8.586 -0.2240  0.5204 -0.4314
 2442SOL    HW1 8767   2.597   2.552   8.648  0.2537 -0.5278 -1.1487
 2442SOL    HW2 8768   2.560   2.656   8.544 -0.5948 -0.4674 -0.7975
 2443SOL     OW 8769   0.138   3.747   8.525  0.5382  0.9343 -0.2115
 2443SOL    HW1 8770   0.134   3.793   8.441 -1.9412 -1.3830 -1.4896
 2443SOL    HW2 8771   0.094   3.805   8.587  0.1557  1.5996 -1.0929
 2444SOL     OW 8772   2.445   3.995   6.944  0.2286 -0.3555 -0.2542
 2444SOL    HW1 8773   2.384   3.926   6.967 -0.0742 -1.0616 -2.8793
 2444SOL    HW2 8774   2.531   3.961   6.968 -0.0046 -1.2636 -0.7018
 2445SOL     OW 8775   1.580   1.911   8.711  0.2142  0.8127 -0.8824
 2445SOL    HW1 8776   1.645   1.861   8.662  1.0686 -0.1563  1.1056
 2445SOL    HW2 8777   1.502   1.856   8.712  0.7717 -0.0038  0.2898
 2446SOL     OW 8778   0.749   3.573   7.270  0.4102 -0.1916 -0.5675
 2446SOL    HW1 8779   0.768   3.538   7.183 -2.1872  0.2646 -1.3971
 2446SOL    HW2 8780   0.732   3.495   7.323 -2.5007 -0.4653 -1.6962
 2447SOL     OW 8781   1.177   3.718   7.251  0.3977 -0.1433 -0.3003
 2447SOL    HW1 8782   1.219   3.711   7.165  0.1121 -0.8894 -0.3803
 2447SOL    HW2 8783   1.184   3.631   7.288  1.3574  0.3852  0.8348
 2448SOL     OW 8784   2.243   3.644   4.123  0.0942  0.2999 -0.3803
 2448SOL    HW1 8785   2.233   3.735   4.094  0.8402  0.7391  0.6907
 2448SOL    HW2 8786   2.337   3.627   4.116  0.0129 -0.2525 -0.1739
 2449SOL     OW 8787   1.160   3.171   8.846  0.1880 -0.1539 -0.1569
 2449SOL    HW1 8788   1.198   3.173   8.934 -0.4187 -0.4428  0.1157
 2449SOL    HW2 8789   1.162   3.262   8.817  0.5859 -0.0879  0.0688
 2450SOL     OW 8790   2.441   2.954   8.677 -0.3003  0.0651 -0.0417
 2450SOL    HW1 8791   2.451   3.035   8.728 -0.1476  0.6510 -0.9663
 2450SOL    HW2 8792   2.347   2.936   8.681 -0.1750 -0.4157  1.1918
 2451SOL     OW 8793   1.187   2.551   8.546 -0.1304  0.8421  0.2649
 2451SOL    HW1 8794   1.177   2.500   8.627 -1.4789  1.7630  0.7307
 2451SOL    HW2 8795   1.281   2.559   8.533  0.1823 -2.2885 -0.1995
 2452SOL     OW 8796   0.577   1.935   8.669  0.0087 -0.2726  0.3419
 2452SOL    HW1 8797   0.631   1.856   8.670 -0.1652 -0.4381  2.9763
 2452SOL    HW2 8798   0.613   1.989   8.739  1.2522  2.8758 -2.4490
 2453SOL     OW 8799   3.581   1.571   9.159  0.7317 -0.2510  0.2997
 2453SOL    HW1 8800   3.562   1.504   9.226  1.8864 -0.3606  0.5364
 2453SOL    HW2 8801   3.629   1.639   9.207 -2.2568  1.8903  0.5967
 2454SOL     OW 8802   7.865   1.133   7.298 -0.3077 -0.2135 -0.1456
 2454SOL    HW1 8803   7.842   1.204   7.359  1.3778  0.6718 -0.4627
 2454SOL    HW2 8804   7.918   1.176   7.231  1.5690 -1.9182  0.1552
 2455SOL     OW 8805   1.001   1.674   8.123 -0.0915 -0.1482 -0.0435
 2455SOL    HW1 8806   0.926   1.710   8.172 -0.2963 -0.0316 -0.4386
 2455SOL    HW2 8807   0.965   1.600   8.075 -0.5433  1.3163 -2.1176
 2456SOL     OW 8808   0.716   2.019   6.949  0.5327  0.2648 -0.2310
 2456SOL    HW1 8809   0.725   1.929   6.918 -0.9398  0.5253 -1.5970
 2456SOL    HW2 8810   0.625   2.042   6.929  0.5408  1.6817  1.1454
 2457SOL     OW 8811   2.362   2.449   7.541  0.3046  0.4670 -0.1355
 2457SOL    HW1 8812   2.322   2.422   7.458 -0.6630 -0.4794  0.6210
 2457SOL    HW2 8813   2.443   2.398   7.546  0.7139  1.0261 -0.7971
 2458SOL     OW 8814   0.940   0.631   7.626 -0.1743  0.6530 -0.6920
 2458SOL    HW1 8815   0.987   0.685   7.563  0.7087  0.3578 -0.3049
 2458SOL    HW2 8816   0.973   0.659   7.711 -1.6545  1.3292 -0.3103
 2459SOL     OW 8817   2.038   4.900   6.927 -0.0258  0.0418 -0.2767
 2459SOL    HW1 8818   1.999   4.988   6.925 -0.2909 -0.0499  0.5146
 2459SOL    HW2 8819   2.111   4.907   6.987  1.0963  0.1545 -1.5933
 2460SOL     OW 8820   0.124   3.809   8.212 -0.6145 -0.0016 -0.0947
 2460SOL    HW1 8821   0.116   3.714   8.215 -1.0319 -0.0480 -1.6308
 2460SOL    HW2 8822   0.105   3.831   8.121 -1.7057  1.6641  0.4922
 2461SOL     OW 8823   2.818   3.542   8.554  0.2610 -0.6663  0.4170
 2461SOL    HW1 8824   2.874   3.592   8.613  0.4052 -1.3290  0.8606
 2461SOL    HW2 8825   2.738   3.593   8.546 -0.1455 -1.0069  1.9548
 2462SOL     OW 8826   0.620   3.219   9.445 -0.3665  0.0983 -0.1996
 2462SOL    HW1 8827   0.636   3.311   9.427 -0.0831  0.4194  1.5316
 2462SOL    HW2 8828   0.611   3.214   9.540 -1.8062 -1.4529 -0.3680
 2463SOL     OW 8829   2.286   3.446   9.063 -0.2373 -0.3290 -0.1930
 2463SOL    HW1 8830   2.313   3.534   9.088 -1.5724  0.1847 -0.4565
 2463SOL    HW2 8831   2.352   3.388   9.102  0.8657  0.7956 -0.3326
 2464SOL     OW 8832   1.901   2.904   8.030 -0.7442  0.1946  0.6783
 2464SOL    HW1 8833   1.878   2.811   8.032 -2.2316  0.4614 -1.1789
 2464SOL    HW2 8834   1.992   2.906   8.060 -0.7860 -1.7998  1.1260
 2465SOL     OW 8835   2.859   1.203   9.735 -0.5168  0.0009  0.2208
 2465SOL    HW1 8836   2.880   1.131   9.675 -0.0061  0.4582 -0.1622
 2465SOL    HW2 8837   2.774   1.234   9.705 -0.3366  0.1245 -0.1830
 2466SOL     OW 8838   1.399   2.961  11.431 -0.2504  0.4643  0.0220
 2466SOL    HW1 8839   1.319   2.941  11.383 -0.8695 -2.5619  2.0601
 2466SOL    HW2 8840   1.380   2.935  11.521  2.8557  0.1560  0.6951
 2467SOL     OW 8841   2.174   4.335   8.408 -0.1413  0.2866 -0.8917
 2467SOL    HW1 8842   2.124   4.299   8.481  0.0809  0.4436 -0.6586
 2467SOL    HW2 8843   2.160   4.273   8.337 -2.1530  1.2644 -1.4154
 2468SOL     OW 8844   0.879   4.050  10.649 -0.4520  0.1683  0.1697
 2468SOL    HW1 8845   0.806   4.112  10.654 -1.8144 -1.4380  1.8622
 2468SOL    HW2 8846   0.927   4.075  10.570 -0.2964  3.9974  1.2605
 2469SOL     OW 8847   0.764   2.300   9.045  0.1985 -0.2940  0.1864
 2469SOL    HW1 8848   0.834   2.355   9.011  1.2068 -2.3869 -1.2854
 2469SOL    HW2 8849   0.806   2.247   9.113 -0.2742 -0.6090  0.2372
 2470SOL     OW 8850   0.617   3.023   7.625  0.1366 -0.5829  0.1970
 2470SOL    HW1 8851   0.555   2.989   7.561  0.1173 -0.2555  0.0379
 2470SOL    HW2 8852   0.572   3.097   7.666  0.6880  0.1312 -0.4446
 2471SOL     OW 8853   2.874   3.271   7.838 -0.6553 -0.2617  0.4430
 2471SOL    HW1 8854   2.868   3.315   7.922 -0.4942 -1.4630  1.1018
 2471SOL    HW2 8855   2.903   3.339   7.777 -1.8520  0.8842  1.1226
 2472SOL     OW 8856   0.378   3.077   9.904  0.3641  0.0871  0.0152
 2472SOL    HW1 8857   0.416   2.992   9.880  0.6886 -0.3072  1.7290
 2472SOL    HW2 8858   0.453   3.131   9.927  0.0335 -0.4669  2.7419
 2473SOL     OW 8859   1.589   4.042   5.676  0.3103 -0.1511  0.1477
 2473SOL    HW1 8860   1.680   4.045   5.704 -0.3217 -0.7724  2.4853
 2473SOL    HW2 8861   1.539   4.034   5.758 -1.9292  1.5788 -0.9393
 2474SOL     OW 8862   1.986   1.989   8.680 -0.1630 -0.1020 -0.2858
 2474SOL    HW1 8863   1.963   2.052   8.611 -0.8474 -1.7155 -1.6180
 2474SOL    HW2 8864   1.997   2.042   8.759 -0.9962  1.6367 -1.2780
 2475SOL     OW 8865   1.233   0.367   8.547  0.0079  0.1797 -0.2562
 2475SOL    HW1 8866   1.287   0.437   8.510 -0.9847  0.6160 -0.9162
 2475SOL    HW2 8867   1.275   0.346   8.630  0.5448  1.2893 -0.2292
 2476SOL     OW 8868   7.119   2.177   7.161  0.0125  0.1451  0.0087
 2476SOL    HW1 8869   7.069   2.229   7.224  1.3092  0.0491  1.1481
 2476SOL    HW2 8870   7.053   2.144   7.100 -1.1218  1.2398  0.5949
 2477SOL     OW 8871   1.873   3.152   9.701  0.1117  0.0712 -0.3893
 2477SOL    HW1 8872   1.940   3.123   9.639  0.7334 -2.5758  1.3139
 2477SOL    HW2 8873   1.921   3.200   9.768 -0.2516  1.1885 -0.9159
 2478SOL     OW 8874   1.182   1.212   8.129  0.0311 -0.1116 -0.7568
 2478SOL    HW1 8875   1.258   1.266   8.150 -0.7801  0.3733  1.1691
 2478SOL    HW2 8876   1.113   1.274   8.107  0.4561 -0.5789 -3.8358
 2479SOL     OW 8877   0.080   2.900   7.195 -0.3375  0.2003  0.1500
 2479SOL    HW1 8878   0.144   2.856   7.140  0.0332 -0.7956  1.3201
 2479SOL    HW2 8879   0.110   2.991   7.200 -0.3749  0.3102 -1.2340
 2480SOL     OW 8880   1.228   0.356   8.934  0.5843  0.0844 -0.5261
 2480SOL    HW1 8881   1.280   0.430   8.903  1.2119  0.2268  0.7862
 2480SOL    HW2 8882   1.138   0.387   8.931  0.7771  0.6462 -0.6685
 2481SOL     OW 8883   2.718   1.807  10.370  0.3322 -0.6608 -0.4715
 2481SOL    HW1 8884   2.780   1.874  10.342  0.1814  0.1670  1.0612
 2481SOL    HW2 8885   2.706   1.751  10.293  1.6527  0.1607 -1.3050
 2482SOL     OW 8886   1.375   3.364   7.452 -0.4225 -0.5051  0.1760
 2482SOL    HW1 8887   1.467   3.338   7.456 -0.0538  0.8528  0.9232
 2482SOL    HW2 8888   1.337   3.332   7.534 -0.6356 -1.0661 -0.1323
 2483SOL     OW 8889   2.252   4.091   8.236  0.2508  0.0539 -0.1470
 2483SOL    HW1 8890   2.278   4.021   8.176 -0.2311 -0.6811  0.4859
 2483SOL    HW2 8891   2.332   4.111   8.285  0.3461 -0.1703 -0.2101
 2484SOL     OW 8892   1.680   2.487   7.695  0.5879  0.2296  0.1743
 2484SOL    HW1 8893   1.734   2.561   7.726 -0.3339  0.7975  0.4473
 2484SOL    HW2 8894   1.742   2.415   7.686  1.3261  0.7511  0.9088
 2485SOL     OW 8895   1.190   2.308   7.478 -0.6674 -0.4947 -0.0864
 2485SOL    HW1 8896   1.122   2.266   7.530 -0.5456 -0.7543 -0.1370
 2485SOL    HW2 8897   1.162   2.400   7.471 -0.3649 -0.3078  0.9725
 2486SOL     OW 8898   1.451   2.502   8.531 -0.1128 -0.1694  1.1089
 2486SOL    HW1 8899   1.420   2.428   8.584  0.5981  0.1254  1.9623
 2486SOL    HW2 8900   1.462   2.465   8.443 -3.3436 -0.1590  0.5949
 2487SOL     OW 8901   7.559   1.615   8.645  0.7485  0.8710 -0.3733
 2487SOL    HW1 8902   7.641   1.615   8.596  1.3408  0.1469  0.5843
 2487SOL    HW2 8903   7.570   1.547   8.711 -0.4167  1.1405  0.1306
 2488SOL     OW 8904   1.767   3.084   7.434 -0.5955 -0.3439  0.6869
 2488SOL    HW1 8905   1.756   3.032   7.355 -1.8737  1.1847 -0.1992
 2488SOL    HW2 8906   1.777   3.174   7.403 -1.7131  0.3753  2.2390
 2489SOL     OW 8907   0.896   2.585   8.351  0.7659 -0.5563  0.0558
 2489SOL    HW1 8908   0.987   2.616   8.348  0.5047  0.2654  0.2254
 2489SOL    HW2 8909   0.902   2.491   8.334  1.6285 -0.4773 -0.1452
 2490SOL     OW 8910   1.893   2.812  10.841 -0.6339  0.1135 -0.1423
 2490SOL    HW1 8911   1.819   2.758  10.814 -1.0802  0.3003  0.6764
 2490SOL    HW2 8912   1.853   2.892  10.875 -0.0450  0.3597 -0.0192
 2491SOL     OW 8913   0.489   2.939   9.669 -0.0055 -0.2580  0.1577
 2491SOL    HW1 8914   0.411   2.904   9.626  1.8454 -1.0087 -2.8247
 2491SOL    HW2 8915   0.473   3.034   9.674 -1.3479 -0.4666  0.1776
 2492SOL     OW 8916   0.658   2.263  11.238  0.2579 -0.3156  0.1168
 2492SOL    HW1 8917   0.636   2.314  11.160 -2.3063  1.5310  1.8825
 2492SOL    HW2 8918   0.650   2.172  11.210  3.7850  0.0314 -2.8304
 2493SOL     OW 8919   1.849   3.274   9.422 -0.4987  0.1126 -0.2432
 2493SOL    HW1 8920   1.893   3.350   9.384 -1.3933  0.5026 -0.5258
 2493SOL    HW2 8921   1.817   3.304   9.507 -0.6567 -0.0198 -0.2546
 2494SOL     OW 8922   1.803   2.973   8.716 -0.4934  0.7187  0.6705
 2494SOL    HW1 8923   1.879   3.030   8.705  0.3092 -0.7148 -2.3095
 2494SOL    HW2 8924   1.840   2.885   8.713 -2.2162 -0.0082 -0.8878
 2495SOL     OW 8925   2.026   1.134  10.429 -0.1518  0.4493 -0.1584
 2495SOL    HW1 8926   1.951   1.149  10.371 -0.1141 -1.6406 -0.8454
 2495SOL    HW2 8927   1.987   1.123  10.516 -0.4832  1.0062 -0.2368
 2496SOL     OW 8928   1.776   1.680  10.651 -0.0858 -0.2525  0.3970
 2496SOL    HW1 8929   1.828   1.737  10.595 -1.7980  0.5390 -0.4423
 2496SOL    HW2 8930   1.738   1.739  10.716 -0.4762 -0.7109  0.5867
 2497SOL     OW 8931   0.349   3.430   9.426  0.0473 -0.5430  0.1454
 2497SOL    HW1 8932   0.319   3.395   9.342 -0.1654 -2.2742  0.9076
 2497SOL    HW2 8933   0.277   3.487   9.454 -0.2772 -0.6528 -0.4386
 2498SOL     OW 8934   7.963   4.544  10.122  0.1638  0.5048  0.2157
 2498SOL    HW1 8935   7.948   4.622  10.069  0.4832  0.5673  0.2148
 2498SOL    HW2 8936   7.877   4.504  10.132  0.0850  0.5486 -0.2676
 2499SOL     OW 8937   0.422   3.124   9.116  0.0576 -0.0613 -0.6224
 2499SOL    HW1 8938   0.327   3.130   9.119  0.1089  0.5288  0.6671
 2499SOL    HW2 8939   0.444   3.138   9.023 -1.0754  0.3411 -0.8505
 2500SOL     OW 8940   3.031   3.016   8.920  0.7518  0.5931  0.3406
 2500SOL    HW1 8941   3.067   3.089   8.970  0.3770  0.1590  1.2491
 2500SOL    HW2 8942   3.106   2.982   8.870  1.0881  1.1242  0.4737
 2501SOL     OW 8943   1.715   2.484  11.064  0.1611 -0.1967  0.6224
 2501SOL    HW1 8944   1.737   2.489  10.971 -0.0298  1.3254  0.6241
 2501SOL    HW2 8945   1.755   2.562  11.102  0.5214 -0.9737  1.8892
 2502SOL     OW 8946   2.372   2.610  11.391  0.1480 -0.3203  0.0815
 2502SOL    HW1 8947   2.424   2.669  11.336 -0.3547  1.2227  1.1990
 2502SOL    HW2 8948   2.428   2.533  11.402  1.6716  0.7496  0.1617
 2503SOL     OW 8949   2.401   3.853   9.476  0.6638  0.3495  0.4630
 2503SOL    HW1 8950   2.319   3.902   9.480  1.0096  1.1488 -1.2796
 2503SOL    HW2 8951   2.464   3.908   9.522  0.7173  0.8305 -0.1795
 2504SOL     OW 8952   0.220   3.276   8.943 -0.1164  0.2545 -0.7462
 2504SOL    HW1 8953   0.298   3.269   8.889 -0.1550  0.4162 -0.8238
 2504SOL    HW2 8954   0.153   3.227   8.896 -0.5135  1.5103 -1.5278
 2505SOL     OW 8955   7.994   1.898   9.058 -0.2647 -0.2677  0.9643
 2505SOL    HW1 8956   8.007   1.820   9.112 -0.4170 -0.5184  0.6431
 2505SOL    HW2 8957   8.069   1.900   8.999 -0.5190 -0.4648  0.6248
 2506SOL     OW 8958   5.916   3.089   9.254  0.5746  0.4415  0.3276
 2506SOL    HW1 8959   6.004   3.119   9.276  0.6094 -0.0183  0.8559
 2506SOL    HW2 8960   5.927   3.034   9.177  1.0182 -1.0088  1.3781
 2507SOL     OW 8961   0.231   4.315  11.466 -0.1573  0.3780 -0.0334
 2507SOL    HW1 8962   0.293   4.272  11.407 -0.1276 -0.9333  0.9091
 2507SOL    HW2 8963   0.273   4.399  11.487  0.6008  0.1419 -0.5610
 2508SOL     OW 8964   0.398   0.962  12.336 -0.5770  0.0285  0.0889
 2508SOL    HW1 8965   0.447   0.913  12.271  2.1202  2.5441  0.0096
 2508SOL    HW2 8966   0.325   1.001  12.287  0.7765  0.9917 -1.2474
 2509SOL     OW 8967   2.325   2.632  10.182 -0.4290 -0.0535  0.0121
 2509SOL    HW1 8968   2.382   2.708  10.192 -1.0109  0.4913 -0.7067
 2509SOL    HW2 8969   2.238   2.663  10.205 -0.8850 -0.1430 -1.4932
 2510SOL     OW 8970   7.807   1.204  12.005 -0.0269 -0.6624  0.3299
 2510SOL    HW1 8971   7.724   1.240  11.973 -0.3860 -1.3912  0.4045
 2510SOL    HW2 8972   7.868   1.217  11.932 -0.5607 -1.3283 -0.2568
 2511SOL     OW 8973   1.783   2.484  10.792 -0.3219 -0.2568  0.2177
 2511SOL    HW1 8974   1.737   2.556  10.750 -0.4294 -0.6830 -0.4117
 2511SOL    HW2 8975   1.875   2.495  10.767 -0.0106  0.7231  1.6590
 2512SOL     OW 8976   0.098   2.219   9.151  0.0524  0.2996 -0.1578
 2512SOL    HW1 8977   0.023   2.163   9.127  0.3085 -0.4276  0.6853
 2512SOL    HW2 8978   0.126   2.186   9.236  0.6400  1.2988  0.0481
 2513SOL     OW 8979   0.865   3.023  10.092  0.2131  0.9812  0.4454
 2513SOL    HW1 8980   0.840   3.087  10.158  1.4785  2.8434 -0.7885
 2513SOL    HW2 8981   0.854   3.068  10.009  2.6044  0.1961 -0.3938
 2514SOL     OW 8982   2.024   3.003   9.463  0.2759  0.3515 -0.0823
 2514SOL    HW1 8983   2.061   2.966   9.383 -1.9962 -0.7681 -0.6858
 2514SOL    HW2 8984   1.998   3.092   9.439 -0.1293  0.1190 -0.5164
 2515SOL     OW 8985   6.483   1.495  12.139  0.1848  0.3512  0.1317
 2515SOL    HW1 8986   6.451   1.418  12.093  1.5556 -0.0522 -0.1803
 2515SOL    HW2 8987   6.510   1.555  12.070  0.2920  0.5984  0.3842
 2516SOL     OW 8988   0.057   2.456   9.024  0.0399 -0.2486 -0.0413
 2516SOL    HW1 8989   0.113   2.532   9.039 -0.2838  0.3241 -1.5141
 2516SOL    HW2 8990   0.081   2.394   9.093  1.2758  0.6442  0.3662
 2517SOL     OW 8991   0.387   0.990  10.824  0.4114  0.2064 -0.3841
 2517SOL    HW1 8992   0.395   1.056  10.893 -2.1316  1.0753 -0.8176
 2517SOL    HW2 8993   0.421   1.034  10.746 -2.3568  1.5924 -0.9358
 2518SOL     OW 8994   0.646   2.410   9.362  0.2387 -0.4248 -0.0086
 2518SOL    HW1 8995   0.575   2.373   9.309  0.8827 -0.4390 -0.8963
 2518SOL    HW2 8996   0.692   2.469   9.301  0.9669 -0.3951  0.5588
 2519SOL     OW 8997   0.903   2.472  11.999 -0.4134 -0.5083 -0.4581
 2519SOL    HW1 8998   0.964   2.427  12.057 -0.8170 -1.6707 -0.9012
 2519SOL    HW2 8999   0.894   2.559  12.037  1.8639 -0.1265 -0.6494
 2520SOL     OW 9000   0.933   2.463   8.903  0.4502  0.1682  0.1046
 2520SOL    HW1 9001   0.894   2.511   8.830 -0.4411  0.3025  0.6469
 2520SOL    HW2 9002   1.002   2.410   8.863  0.0438  0.3107 -0.8199
 2521SOL     OW 9003   2.647   3.539  11.203  0.2645  0.3583 -0.2444
 2521SOL    HW1 9004   2.577   3.587  11.158 -0.2314  0.6247  0.7601
 2521SOL    HW2 9005   2.696   3.496  11.134 -2.4722 -2.0363 -0.9298
 2522SOL     OW 9006   1.338   2.256   0.816 -0.5531  0.3948 -0.3151
 2522SOL    HW1 9007   1.322   2.215   0.731 -1.6866  0.3830 -0.0998
 2522SOL    HW2 9008   1.255   2.298   0.839  0.2793  2.0164 -0.0903
 2523SOL     OW 9009   7.818   3.763  10.014  0.1737 -0.0536  1.1456
 2523SOL    HW1 9010   7.765   3.690  10.045 -0.2175  0.5041  1.8107
 2523SOL    HW2 9011   7.907   3.742  10.041  0.2118 -0.7274  0.5133
 2524SOL     OW 9012   1.129   1.927   8.793  0.1996  0.1557 -0.0421
 2524SOL    HW1 9013   1.215   1.884   8.797 -0.1870 -0.7430 -0.9086
 2524SOL    HW2 9014   1.125   1.964   8.705 -0.4241 -0.0926 -0.1208
 2525SOL     OW 9015   2.479   1.377  10.889  0.5139  0.1124  0.6430
 2525SOL    HW1 9016   2.408   1.410  10.944  1.7217 -1.3860  3.3164
 2525SOL    HW2 9017   2.437   1.313  10.831 -0.5350  0.3364  1.1374
 2526SOL     OW 9018   2.228   3.162   8.072  0.2830 -0.0667  0.0525
 2526SOL    HW1 9019   2.222   3.067   8.083 -1.2477  0.0455  0.3578
 2526SOL    HW2 9020   2.314   3.185   8.108  0.5127 -1.2763  0.3246
 2527SOL     OW 9021   0.426   1.881  10.833 -0.9029  0.1817  0.4887
 2527SOL    HW1 9022   0.333   1.905  10.836 -1.3953 -1.5496  0.0131
 2527SOL    HW2 9023   0.433   1.804  10.888 -0.3535 -1.4804 -1.7702
 2528SOL     OW 9024   7.903   1.615   0.650 -0.4326  0.1798 -0.0827
 2528SOL    HW1 9025   7.865   1.676   0.713 -0.6605 -0.9371  0.9088
 2528SOL    HW2 9026   7.963   1.562   0.702  1.3004  0.8593 -1.3183
 2529SOL     OW 9027   0.209   1.783  11.643  0.1008 -0.3779  0.0292
 2529SOL    HW1 9028   0.280   1.827  11.690 -1.1075  1.3072  0.3861
 2529SOL    HW2 9029   0.225   1.690  11.656  0.5965  0.0016  2.6249
 2530SOL     OW 9030   1.471   2.124  10.703 -0.2422 -0.3123 -0.3083
 2530SOL    HW1 9031   1.550   2.167  10.737 -0.5421  1.0646 -1.2521
 2530SOL    HW2 9032   1.420   2.102  10.780  0.1031  0.7200  0.2376
 2531SOL     OW 9033   1.179   3.040  11.047 -0.5792  0.2690  0.1284
 2531SOL    HW1 9034   1.253   2.981  11.058  0.2753  1.2722 -0.1574
 2531SOL    HW2 9035   1.135   3.008  10.968  1.1453  1.2817 -1.3226
 2532SOL     OW 9036   1.792   1.908   8.950  0.3801 -0.3242 -0.4437
 2532SOL    HW1 9037   1.799   1.911   8.855 -1.7002  1.9742 -0.6098
 2532SOL    HW2 9038   1.768   1.997   8.976 -0.0043 -1.0896  2.1559
 2533SOL     OW 9039   0.900   3.886  10.253  0.6436  0.1311 -0.2559
 2533SOL    HW1 9040   0.965   3.846  10.195  0.9736  1.1364 -0.6011
 2533SOL    HW2 9041   0.816   3.870  10.210  0.4735 -2.1956  0.7624
 2534SOL     OW 9042   0.304   0.743   9.555 -0.4221 -0.1045 -0.2218
 2534SOL    HW1 9043   0.298   0.766   9.462 -1.4295  1.2323  0.1291
 2534SOL    HW2 9044   0.346   0.819   9.595 -0.0246 -0.6588  0.4312
 2535SOL     OW 9045   3.040   2.919  11.083  0.8738 -0.1463  0.2332
 2535SOL    HW1 9046   3.098   2.974  11.030  0.3369 -0.0205 -0.2365
 2535SOL    HW2 9047   3.013   2.974  11.156 -0.0111  0.3722 -0.4717
 2536SOL     OW 9048   3.407   2.522   9.328  0.7257 -0.0714  0.0579
 2536SOL    HW1 9049   3.313   2.537   9.334  0.9891  1.7906  0.1625
 2536SOL    HW2 9050   3.432   2.559   9.244  1.3746 -0.4998  0.0583
 2537SOL     OW 9051   0.585   1.428  10.831  0.2248 -0.6367 -0.2467
 2537SOL    HW1 9052   0.601   1.449  10.739  0.3180  1.2838  0.1689
 2537SOL    HW2 9053   0.669   1.446  10.874 -0.7452  1.9233  0.7269
 2538SOL     OW 9054   1.830   3.306   8.234 -0.0576 -0.1272  0.5369
 2538SOL    HW1 9055   1.836   3.282   8.327  1.2891 -0.6729  0.3215
 2538SOL    HW2 9056   1.880   3.387   8.227  1.7577 -1.2640 -0.1014
 2539SOL     OW 9057   7.988   5.018  12.064  0.3985 -0.4539  0.4293
 2539SOL    HW1 9058   8.019   4.928  12.053  0.7273 -0.0649 -2.7929
 2539SOL    HW2 9059   8.067   5.071  12.058 -0.0434  0.1493 -0.2261
 2540SOL     OW 9060   1.826   1.605   9.394 -0.0548  0.5418 -0.4533
 2540SOL    HW1 9061   1.771   1.568   9.325 -0.1126 -1.4837  0.5968
 2540SOL    HW2 9062   1.848   1.531   9.450  0.4578  1.9896  1.3977
 2541SOL     OW 9063   0.769   4.789  10.353  0.6382 -0.0230  0.0218
 2541SOL    HW1 9064   0.744   4.818  10.441 -1.7091 -0.5980 -0.3936
 2541SOL    HW2 9065   0.864   4.777  10.358  0.8709  1.8709  1.8927
 2542SOL     OW 9066   0.505   3.539   9.927  0.0839  0.7011  0.2850
 2542SOL    HW1 9067   0.596   3.567   9.915  0.1860  1.7847  2.9152
 2542SOL    HW2 9068   0.460   3.568   9.848  1.5245  2.5991  0.0958
 2543SOL     OW 9069   2.631   1.637   9.785  0.0198 -0.7167  0.2547
 2543SOL    HW1 9070   2.613   1.581   9.709 -0.1700  0.0229 -0.2569
 2543SOL    HW2 9071   2.615   1.726   9.753  0.2365 -0.3767  1.0802
 2544SOL     OW 9072   0.135   1.499  10.514 -0.3290  0.1327 -0.5340
 2544SOL    HW1 9073   0.081   1.565  10.470 -0.6861 -0.1443 -0.5242
 2544SOL    HW2 9074   0.109   1.416  10.473 -0.0035 -0.0215 -0.4341
 2545SOL     OW 9075   2.170   4.394   7.953 -0.3540  0.1029 -0.3993
 2545SOL    HW1 9076   2.225   4.315   7.947 -0.0280  0.1372  1.5365
 2545SOL    HW2 9077   2.097   4.368   8.009 -1.0606  0.7577 -1.0001
 2546SOL     OW 9078   0.083   1.517  11.380 -0.1459 -0.2714  0.0693
 2546SOL    HW1 9079   0.102   1.610  11.363 -0.3307 -0.2669 -0.1071
 2546SOL    HW2 9080   0.128   1.470  11.310  0.9842 -0.3982  0.8531
 2547SOL     OW 9081   7.898   3.067   9.554 -0.3369  0.1824 -0.1239
 2547SOL    HW1 9082   7.918   3.046   9.645 -0.3787 -0.9948 -0.3661
 2547SOL    HW2 9083   7.840   2.996   9.525 -0.2684  0.4993 -1.0805
 2548SOL     OW 9084   1.319   4.000   8.433 -0.1334  0.0757  0.1880
 2548SOL    HW1 9085   1.401   3.970   8.473  0.2811 -0.7033 -1.1932
 2548SOL    HW2 9086   1.250   3.959   8.485  0.3885 -0.9883  0.0612
 2549SOL     OW 9087   0.694   0.958  10.913 -0.6027  0.1325  0.0264
 2549SOL    HW1 9088   0.673   0.940  10.821  0.2951 -0.9112 -0.0012
 2549SOL    HW2 9089   0.691   1.053  10.920  0.9505  0.3554 -1.5388
 2550SOL     OW 9090   1.253   2.085   1.581 -0.0800 -0.2406 -0.0775
 2550SOL    HW1 9091   1.303   2.162   1.608 -1.2180  0.3078  0.5428
 2550SOL    HW2 9092   1.259   2.084   1.486  0.4852  0.2343 -0.0482
 2551SOL     OW 9093   6.941   5.719  10.523  0.2279 -0.2736 -0.7160
 2551SOL    HW1 9094   7.010   5.784  10.537  0.9404 -1.4534  1.9067
 2551SOL    HW2 9095   6.972   5.642  10.571 -3.2627 -0.5973  1.3156
 2552SOL     OW 9096   7.859   2.212   9.871  0.1929  0.0330 -0.2625
 2552SOL    HW1 9097   7.770   2.243   9.855  0.4126  0.5897 -0.4577
 2552SOL    HW2 9098   7.915   2.287   9.849  0.7435 -0.4802 -0.6587
 2553SOL     OW 9099   1.209   1.770  11.137 -0.2395 -0.6014 -0.2766
 2553SOL    HW1 9100   1.154   1.794  11.062  0.7511  0.4515 -0.6895
 2553SOL    HW2 9101   1.228   1.677  11.123 -0.8689 -0.6632 -0.7929
 2554SOL     OW 9102   2.008   1.168   8.226 -0.1093  0.3131  0.6179
 2554SOL    HW1 9103   1.971   1.246   8.265  2.2671  1.8424  0.0230
 2554SOL    HW2 9104   2.103   1.177   8.238  0.3313 -1.8384 -0.6035
 2555SOL     OW 9105   1.716   2.907  12.485  0.2873 -0.0395 -0.2281
 2555SOL    HW1 9106   1.699   2.864  12.569 -1.0039  0.5143 -0.1842
 2555SOL    HW2 9107   1.669   2.854  12.421  1.1152 -0.3516 -0.5947
 2556SOL     OW 9108   0.629   3.394  11.655  0.4644  0.5115 -0.6964
 2556SOL    HW1 9109   0.698   3.421  11.716 -0.0770 -0.9817  0.6303
 2556SOL    HW2 9110   0.669   3.326  11.601  0.3132  0.3201 -0.5682
 2557SOL     OW 9111   0.619   1.144  10.716 -0.6625  0.1273 -0.1564
 2557SOL    HW1 9112   0.714   1.156  10.707 -0.6353  0.5839  0.6750
 2557SOL    HW2 9113   0.582   1.208  10.655 -0.4441  0.6096  0.2104
 2558SOL     OW 9114   1.627   3.709   9.693 -0.3597 -0.6243 -0.2954
 2558SOL    HW1 9115   1.563   3.646   9.725 -0.6218 -0.3703 -0.3069
 2558SOL    HW2 9116   1.576   3.790   9.681  0.3632  0.2018  1.7313
 2559SOL     OW 9117   7.932   0.820   7.522 -0.3669  0.0131  0.2161
 2559SOL    HW1 9118   7.842   0.799   7.500 -0.0747 -0.9602 -0.0762
 2559SOL    HW2 9119   7.967   0.862   7.443 -0.5045  0.2227  0.2654
 2560SOL     OW 9120   0.095   2.964   8.280 -0.2073 -0.5596  0.5016
 2560SOL    HW1 9121   0.084   3.059   8.287  2.2821  0.0735 -2.2755
 2560SOL    HW2 9122   0.146   2.940   8.357 -1.5064  0.1701  1.6284
 2561SOL     OW 9123   0.412   1.073   8.985  0.0705  0.5301 -0.2802
 2561SOL    HW1 9124   0.506   1.057   8.989  0.2751  1.4631 -0.9904
 2561SOL    HW2 9125   0.396   1.098   8.894 -0.9599 -0.1271 -0.3018
 2562SOL     OW 9126   1.376   0.576   8.829 -0.6175  0.1567  0.3275
 2562SOL    HW1 9127   1.435   0.598   8.756 -2.0357  1.5715 -0.4712
 2562SOL    HW2 9128   1.424   0.604   8.907  0.2911  0.0978 -0.1932
 2563SOL     OW 9129   2.132   2.020  11.359  0.3623  0.0105 -0.6347
 2563SOL    HW1 9130   2.045   2.028  11.399 -0.4935 -4.3015 -1.1502
 2563SOL    HW2 9131   2.117   2.027  11.265  0.9220  1.0296 -0.6673
 2564SOL     OW 9132   0.345   4.772   9.889 -0.0221  0.2878  0.7800
 2564SOL    HW1 9133   0.377   4.690   9.851  0.0879  0.4175  0.5930
 2564SOL    HW2 9134   0.419   4.832   9.882 -0.2554  0.5458  0.4758
 2565SOL     OW 9135   7.111   3.605  10.142 -0.8865  0.6051  0.3598
 2565SOL    HW1 9136   7.070   3.690  10.128  0.7194  1.4697  0.6787
 2565SOL    HW2 9137   7.071   3.573  10.223 -1.7068  0.9176  0.0910
 2566SOL     OW 9138   0.739   3.185   8.680 -0.0468 -0.0936  0.1505
 2566SOL    HW1 9139   0.733   3.136   8.598  1.1854  1.0315 -0.6473
 2566SOL    HW2 9140   0.809   3.141   8.729 -1.1787 -1.1332  0.9017
 2567SOL     OW 9141   0.994   2.431   9.708 -0.9233 -0.6677 -0.4891
 2567SOL    HW1 9142   0.949   2.514   9.728  0.6867  0.3907 -1.0251
 2567SOL    HW2 9143   0.937   2.363   9.744 -1.8832  0.7268  0.7496
 2568SOL     OW 9144   1.002   2.366  10.795  0.1461 -0.7061 -0.4545
 2568SOL    HW1 9145   0.919   2.394  10.756 -0.7671  0.1957  1.9344
 2568SOL    HW2 9146   0.976   2.308  10.867  1.7322 -2.2097 -1.0258
 2569SOL     OW 9147   6.878   1.236  10.080  0.6039 -0.1100 -0.5507
 2569SOL    HW1 9148   6.826   1.305  10.041  0.1098 -0.1617  0.0025
 2569SOL    HW2 9149   6.892   1.265  10.170 -0.2143 -1.0492 -0.1034
 2570SOL     OW 9150   1.800   2.457   9.969 -0.1507  0.2796  0.6599
 2570SOL    HW1 9151   1.879   2.509   9.983  0.0911 -0.0185  0.4255
 2570SOL    HW2 9152   1.818   2.373  10.010  0.9656 -0.9692 -2.1450
 2571SOL     OW 9153   1.450   2.085   9.791 -0.2394  0.0267 -0.5276
 2571SOL    HW1 9154   1.408   2.163   9.753 -0.6050  0.7594  1.2880
 2571SOL    HW2 9155   1.519   2.120   9.847 -1.2367 -0.8607  1.3305
 2572SOL     OW 9156   1.616   3.235   9.747  0.4378 -0.6086  0.1137
 2572SOL    HW1 9157   1.693   3.193   9.709  0.7342 -0.6649  0.7603
 2572SOL    HW2 9158   1.648   3.274   9.828  0.0599  0.4418 -0.2210
 2573SOL     OW 9159   1.497   2.089   8.491  0.2599  0.3907 -0.2125
 2573SOL    HW1 9160   1.470   2.166   8.542 -1.8967  0.3331 -1.1743
 2573SOL    HW2 9161   1.479   2.015   8.548 -2.3053  0.3147 -1.0333
 2574SOL     OW 9162   1.518   3.163  10.210 -0.1129  0.2458 -0.2294
 2574SOL    HW1 9163   1.479   3.094  10.155 -0.3872 -0.2988  0.6288
 2574SOL    HW2 9164   1.482   3.244  10.176 -1.5340 -0.1961  0.1432
 2575SOL     OW 9165   1.173   3.370  10.443 -0.0073  0.4984  0.2907
 2575SOL    HW1 9166   1.152   3.461  10.463  1.3961  0.7325  0.7780
 2575SOL    HW2 9167   1.167   3.365  10.347 -0.8192  0.8925  0.3062
 2576SOL     OW 9168   7.873   3.714  10.630 -0.2407  0.7890 -0.3303
 2576SOL    HW1 9169   7.823   3.644  10.673  0.0254 -0.2761 -1.6732
 2576SOL    HW2 9170   7.845   3.711  10.539  2.2791  0.0843 -1.1591
 2577SOL     OW 9171   1.686   2.814   9.257 -0.4115 -0.2297 -0.2387
 2577SOL    HW1 9172   1.599   2.779   9.238 -0.4020 -0.3493 -0.0734
 2577SOL    HW2 9173   1.678   2.908   9.244 -1.3418  0.1728  2.4882
 2578SOL     OW 9174   0.103   2.341   8.491 -0.0735 -0.4786 -0.2493
 2578SOL    HW1 9175   0.193   2.363   8.465  0.2469 -1.3425  0.1005
 2578SOL    HW2 9176   0.108   2.250   8.521 -0.8174 -0.1478  0.9587
 2579SOL     OW 9177   1.233   3.470  11.528 -0.2769 -0.3610 -0.5160
 2579SOL    HW1 9178   1.161   3.522  11.492  0.9997  1.4450 -0.5511
 2579SOL    HW2 9179   1.288   3.450  11.452  0.7981  0.8218 -0.0728
 2580SOL     OW 9180   0.573   3.502   8.873  0.4795 -0.5682  0.4943
 2580SOL    HW1 9181   0.651   3.445   8.874  0.7898 -0.1769 -0.5141
 2580SOL    HW2 9182   0.501   3.442   8.853  0.9509 -0.4973 -1.7243
 2581SOL     OW 9183   2.737   2.997  11.005  0.2726 -0.0353  0.3348
 2581SOL    HW1 9184   2.780   2.942  11.071  1.0429  0.6454  0.4139
 2581SOL    HW2 9185   2.806   3.017  10.942 -0.1681  0.3094 -0.0434
 2582SOL     OW 9186   1.504   2.954   9.783 -0.0068  0.1412  0.6588
 2582SOL    HW1 9187   1.458   2.920   9.860 -1.7956  0.6920 -0.1085
 2582SOL    HW2 9188   1.472   3.043   9.774  0.7606  0.3311 -0.2813
 2583SOL     OW 9189   0.841   3.788  10.527  0.5734  0.2747  0.2451
 2583SOL    HW1 9190   0.823   3.867  10.579 -1.0260  0.0236  0.1277
 2583SOL    HW2 9191   0.845   3.819  10.437 -1.2657  0.1044  0.0625
 2584SOL     OW 9192   0.992   2.755  11.739 -0.4747 -0.3178  0.6074
 2584SOL    HW1 9193   0.931   2.682  11.749  0.0659 -0.7545  0.7890
 2584SOL    HW2 9194   1.058   2.741  11.807  0.7742 -0.8210 -0.6547
 2585SOL     OW 9195   0.632   2.907   9.974  0.2855  0.2783  0.3053
 2585SOL    HW1 9196   0.682   2.911  10.056  1.3372 -1.0423 -0.2306
 2585SOL    HW2 9197   0.677   2.967   9.915  0.1533  0.4508  0.3810
 2586SOL     OW 9198   0.816   1.302  11.349 -0.1550 -0.5596  0.3896
 2586SOL    HW1 9199   0.892   1.322  11.403 -0.3331 -0.2016  0.5074
 2586SOL    HW2 9200   0.770   1.385  11.341  0.9075 -0.0896 -1.9404
 2587SOL     OW 9201   2.604   2.557  10.429 -0.0539 -0.2080 -0.4441
 2587SOL    HW1 9202   2.516   2.595  10.427 -0.8409 -1.6561  2.0714
 2587SOL    HW2 9203   2.615   2.516  10.343 -1.6240  0.4332 -0.9851
 2588SOL     OW 9204   0.051   5.228  11.670 -0.4158  0.1962 -0.5047
 2588SOL    HW1 9205   0.141   5.237  11.701 -0.4863  0.5272 -0.3843
 2588SOL    HW2 9206   0.005   5.187  11.743  0.1515 -2.3297 -1.4871
 2589SOL     OW 9207   0.763   4.002   9.465  0.1863 -0.0749  0.1091
 2589SOL    HW1 9208   0.685   3.968   9.422  0.6263  0.1875 -0.9447
 2589SOL    HW2 9209   0.833   3.944   9.436  1.0684  1.9234 -2.2157
 2590SOL     OW 9210   2.195   3.150  10.495 -0.2532 -0.4085  0.0220
 2590SOL    HW1 9211   2.277   3.181  10.535  0.5101 -1.7235 -0.4464
 2590SOL    HW2 9212   2.224   3.085  10.430 -1.7034 -1.3229  0.2604
 2591SOL     OW 9213   1.053   2.004  10.640  0.4038  0.0538  0.2214
 2591SOL    HW1 9214   1.050   2.061  10.563 -0.1394 -1.0290 -0.5665
 2591SOL    HW2 9215   1.147   1.996  10.659  0.4995  1.0481  0.2298
 2592SOL     OW 9216   0.895   2.339  10.137 -0.0717 -0.0896  0.0464
 2592SOL    HW1 9217   0.844   2.305  10.064 -1.1512 -0.3302  0.8923
 2592SOL    HW2 9218   0.986   2.324  10.111 -0.4669 -2.7441 -0.0821
 2593SOL     OW 9219   1.593   1.485  11.435 -0.4828 -0.4174 -0.3750
 2593SOL    HW1 9220   1.511   1.468  11.388 -0.2940  0.7073 -1.1617
 2593SOL    HW2 9221   1.626   1.567  11.397 -0.4854  0.7555  1.9892
 2594SOL     OW 9222   0.593   1.473  10.577 -0.1108 -0.2145 -0.3172
 2594SOL    HW1 9223   0.652   1.514  10.514 -0.1083 -1.0947 -0.9043
 2594SOL    HW2 9224   0.505   1.499  10.548 -0.0368  1.2264  0.6494
 2595SOL     OW 9225   2.438   3.438  11.700 -0.0365 -0.2409  0.2506
 2595SOL    HW1 9226   2.388   3.386  11.762  1.6278 -0.6694  1.2937
 2595SOL    HW2 9227   2.505   3.481  11.753  0.1761  1.0017 -0.9665
 2596SOL     OW 9228   1.326   1.940  10.594  0.1055  0.3608  0.4264
 2596SOL    HW1 9229   1.325   1.867  10.655  1.2409  0.5242  0.6620
 2596SOL    HW2 9230   1.383   2.005  10.635  0.0120  0.9162 -0.3015
 2597SOL     OW 9231   0.499   1.604  12.166 -0.1393  0.2726  0.7690
 2597SOL    HW1 9232   0.421   1.641  12.126  0.5799  0.4782 -0.4871
 2597SOL    HW2 9233   0.467   1.526  12.212 -0.9634 -0.1209 -0.4220
 2598SOL     OW 9234   0.070   2.701  10.998  0.0241 -0.1701  0.0826
 2598SOL    HW1 9235   0.081   2.645  11.075  0.3182 -1.2783 -0.7496
 2598SOL    HW2 9236   0.080   2.642  10.924 -0.2680  0.8852 -0.8149
 2599SOL     OW 9237   0.000   2.259  11.232  0.7908  0.3572 -0.4975
 2599SOL    HW1 9238  -0.058   2.334  11.221 -0.4913 -0.1270  2.1848
 2599SOL    HW2 9239   0.076   2.294  11.278  0.0459  0.0146  1.0503
 2600SOL     OW 9240   2.635   3.487   9.033  0.4259  0.2832  0.7614
 2600SOL    HW1 9241   2.583   3.406   9.026 -0.2337  0.8049 -1.0282
 2600SOL    HW2 9242   2.678   3.480   9.117  0.2831 -1.8874  0.7257
 2601SOL     OW 9243   1.207   1.539   8.601  0.4890 -0.3018  0.2061
 2601SOL    HW1 9244   1.169   1.503   8.521  1.3038  0.4909 -0.5549
 2601SOL    HW2 9245   1.131   1.574   8.649  0.1243  0.4604 -0.8710
 2602SOL     OW 9246   7.396   1.068  12.400 -0.3945  0.4576  0.2924
 2602SOL    HW1 9247   7.424   0.998  12.341 -1.7905  1.0882 -1.1935
 2602SOL    HW2 9248   7.437   1.047  12.484  0.3421 -1.3595 -0.4822
 2603SOL     OW 9249   2.672   2.915  10.470  0.1479  0.0516  0.2059
 2603SOL    HW1 9250   2.680   2.996  10.418 -0.4854 -0.0240 -0.0103
 2603SOL    HW2 9251   2.672   2.944  10.561  1.9856  0.1405  0.2229
 2604SOL     OW 9252   0.640   2.638  10.461 -0.1003  0.0103 -0.0829
 2604SOL    HW1 9253   0.594   2.685  10.530 -1.1287 -0.9950 -0.0568
 2604SOL    HW2 9254   0.694   2.705  10.418  0.5559  0.6578  1.6595
 2605SOL     OW 9255   0.570   0.871   8.102  0.0322 -0.3261  0.1166
 2605SOL    HW1 9256   0.486   0.850   8.143 -0.6633  1.3031 -0.3826
 2605SOL    HW2 9257   0.547   0.922   8.024  1.4652 -0.5014 -0.4636
 2606SOL     OW 9258   0.101   1.814  10.872  0.4326  0.0087  0.1542
 2606SOL    HW1 9259   0.060   1.876  10.812  0.7105 -0.3905 -0.4654
 2606SOL    HW2 9260   0.100   1.858  10.957  0.5080  0.8048 -0.2436
 2607SOL     OW 9261   0.762   3.539  10.182  0.2649 -0.1237  0.0118
 2607SOL    HW1 9262   0.721   3.625  10.188 -0.1148 -0.3515  0.7524
 2607SOL    HW2 9263   0.689   3.477  10.184  0.5955 -0.5028  0.6487
 2608SOL     OW 9264   1.822   3.405  10.644  0.4248 -0.5587  0.1134
 2608SOL    HW1 9265   1.808   3.408  10.549 -0.0402  0.3245  0.2038
 2608SOL    HW2 9266   1.757   3.464  10.680  1.4467  0.1410  0.8881
 2609SOL     OW 9267   0.870   3.226  10.751 -0.6787  0.1694  0.2802
 2609SOL    HW1 9268   0.847   3.193  10.664  1.9222 -1.6104  0.1355
 2609SOL    HW2 9269   0.863   3.321  10.743  0.6882  0.1537 -2.3286
 2610SOL     OW 9270   1.277   2.553  10.115  0.4387 -0.2350 -1.0930
 2610SOL    HW1 9271   1.355   2.497  10.115  1.1679  0.7502 -0.8062
 2610SOL    HW2 9272   1.292   2.615  10.186 -1.8838 -1.7287  0.8746
 2611SOL     OW 9273   2.766   0.523   9.248 -0.0522  0.0308  0.2380
 2611SOL    HW1 9274   2.769   0.599   9.305 -0.2963  1.7582 -1.9007
 2611SOL    HW2 9275   2.673   0.516   9.223 -0.3772 -2.0937  1.7166
 2612SOL     OW 9276   1.052   2.039  11.014  0.4405 -0.0822  0.4303
 2612SOL    HW1 9277   0.986   2.104  10.990  0.6809  0.4416  1.1562
 2612SOL    HW2 9278   1.081   2.065  11.101  1.1330 -0.6882  0.3914
 2613SOL     OW 9279   0.029   1.461  11.643 -0.1570 -0.6107 -0.4920
 2613SOL    HW1 9280   0.118   1.458  11.676 -0.3279 -0.1333  0.0312
 2613SOL    HW2 9281   0.036   1.505  11.559 -0.2956  2.5621  1.0333
 2614SOL     OW 9282   7.738   1.445  10.742 -0.6544  0.1134 -0.2565
 2614SOL    HW1 9283   7.672   1.505  10.775 -1.3236 -0.9638  0.4040
 2614SOL    HW2 9284   7.820   1.475  10.782 -1.2203 -0.3003  1.2674
 2615SOL     OW 9285   1.968   2.651  11.120 -0.0074 -0.0982  0.2556
 2615SOL    HW1 9286   2.052   2.659  11.165 -0.7396 -1.4981  2.0417
 2615SOL    HW2 9287   1.981   2.693  11.035  1.8642  1.5334  1.2738
 2616SOL     OW 9288   0.727   1.928  12.029  0.0124  0.2338 -0.1160
 2616SOL    HW1 9289   0.805   1.946  11.977 -0.6089 -0.8365 -1.4753
 2616SOL    HW2 9290   0.661   1.987  11.995 -0.3054 -0.2364 -0.3302
 2617SOL     OW 9291   0.986   1.335  11.122 -0.8707  0.3041 -0.5035
 2617SOL    HW1 9292   0.982   1.313  11.215  0.9575 -1.4928 -0.7724
 2617SOL    HW2 9293   1.003   1.251  11.078  0.5216  1.4214 -2.2363
 2618SOL     OW 9294   0.909   3.110   8.893  0.6301 -0.2556  0.6088
 2618SOL    HW1 9295   0.896   3.017   8.911  1.4415 -0.2216  1.4874
 2618SOL    HW2 9296   1.004   3.120   8.884  0.5376  0.4486  0.3212
 2619SOL     OW 9297   0.642   0.808  10.122 -0.1675 -0.1649  0.1259
 2619SOL    HW1 9298   0.623   0.737  10.060  0.4208 -0.4179  0.2299
 2619SOL    HW2 9299   0.734   0.828  10.107 -0.6324  1.4352 -0.7859
 2620SOL     OW 9300   0.634   3.631  11.988 -0.2094  0.4300  0.3535
 2620SOL    HW1 9301   0.557   3.626  11.932 -0.9819 -0.4798  1.4390
 2620SOL    HW2 9302   0.692   3.562  11.956 -0.4595  0.1956  0.4052
 2621SOL     OW 9303   7.191   2.771  11.282 -0.0830  0.5777  0.0151
 2621SOL    HW1 9304   7.249   2.846  11.273  0.2454  0.2842 -0.3603
 2621SOL    HW2 9305   7.138   2.771  11.202 -0.7104  0.9242  0.4165
 2622SOL     OW 9306   0.985   3.640   9.865 -0.0680 -0.5492  0.3280
 2622SOL    HW1 9307   1.012   3.731   9.852 -1.5095 -0.2689 -1.0974
 2622SOL    HW2 9308   0.911   3.629   9.805 -1.5239 -1.9364  2.2757
 2623SOL     OW 9309   0.749   2.904  11.951  0.1214 -0.1495 -0.2036
 2623SOL    HW1 9310   0.812   2.851  11.999 -1.1097 -0.8119  0.7377
 2623SOL    HW2 9311   0.802   2.964  11.899  1.5070 -0.5940  0.6614
 2624SOL     OW 9312   1.572   2.034   7.631  0.4786 -0.2525 -0.8290
 2624SOL    HW1 9313   1.623   2.021   7.552  1.6385 -0.4677 -0.0673
 2624SOL    HW2 9314   1.483   2.053   7.600  1.2055  1.0440 -2.1927
 2625SOL     OW 9315   1.333   3.583  11.144  0.4233  0.1261  0.3356
 2625SOL    HW1 9316   1.282   3.660  11.116  1.4143  0.9370  0.7091
 2625SOL    HW2 9317   1.289   3.509  11.102 -1.2941  0.7490  0.9442
 2626SOL     OW 9318   0.064   4.061  11.241 -0.0666 -0.3990 -0.3265
 2626SOL    HW1 9319   0.149   4.104  11.254 -0.0243  0.0784 -2.0162
 2626SOL    HW2 9320   0.000   4.131  11.256 -0.1736 -0.6898  0.6580
 2627SOL     OW 9321   0.574   3.413  11.341 -0.0535  0.0181  0.6632
 2627SOL    HW1 9322   0.593   3.445  11.252 -2.2047  1.0648  0.5042
 2627SOL    HW2 9323   0.626   3.469  11.398  0.7914 -0.1827  0.1184
 2628SOL     OW 9324   1.057   4.866  10.422  0.8290  0.1570 -0.2498
 2628SOL    HW1 9325   1.078   4.955  10.453  0.2823 -0.3207  1.6169
 2628SOL    HW2 9326   1.138   4.836  10.380  0.7976  1.7869 -1.5911
 2629SOL     OW 9327   6.893   0.939  12.134  0.1797  0.6659 -0.1417
 2629SOL    HW1 9328   6.903   0.939  12.229  0.7659 -0.3690 -0.1915
 2629SOL    HW2 9329   6.827   1.006  12.117  1.3203  2.0968  0.8538
 2630SOL     OW 9330   0.214   2.965  10.859  0.4214  0.3408 -0.4761
 2630SOL    HW1 9331   0.165   2.990  10.781  0.5932  1.3847 -0.2719
 2630SOL    HW2 9332   0.238   3.049  10.900  0.0506 -0.1809  0.8757
 2631SOL     OW 9333   0.423   4.206  11.654  0.0571 -0.4182 -0.2439
 2631SOL    HW1 9334   0.338   4.207  11.609  1.0375  0.3401 -2.1897
 2631SOL    HW2 9335   0.418   4.129  11.711 -1.7909 -0.6063 -0.5734
 2632SOL     OW 9336   7.502   1.812   9.443  0.7768 -0.6618 -0.0246
 2632SOL    HW1 9337   7.486   1.718   9.452  0.7093 -0.6964 -0.5027
 2632SOL    HW2 9338   7.505   1.827   9.349  3.4505 -0.6267 -0.0163
 2633SOL     OW 9339   2.014   3.604  10.697  0.3983 -0.0698  0.0593
 2633SOL    HW1 9340   2.047   3.586  10.609  0.4565 -0.6520  0.1937
 2633SOL    HW2 9341   1.935   3.550  10.704  0.3614  0.0188  0.3444
 2634SOL     OW 9342   1.934   2.784   9.936 -0.2861  0.1510  0.0237
 2634SOL    HW1 9343   1.892   2.857   9.891 -0.3852 -1.0385 -1.9439
 2634SOL    HW2 9344   1.995   2.748   9.871  0.5456 -0.8657  1.3098
 2635SOL     OW 9345   0.655   2.508   9.890  0.1632 -0.0443 -0.4056
 2635SOL    HW1 9346   0.600   2.443   9.936 -0.0562  1.3238  1.3754
 2635SOL    HW2 9347   0.720   2.455   9.843 -0.7279 -1.5910  0.0211
 2636SOL     OW 9348   0.296   2.796  11.316 -0.7716  0.7042 -0.7097
 2636SOL    HW1 9349   0.285   2.886  11.346 -0.2925  0.1936  1.1466
 2636SOL    HW2 9350   0.219   2.750  11.350  1.3710 -0.6031  2.9490
 2637SOL     OW 9351   2.486   1.596   7.170  0.5296 -0.2971 -0.1272
 2637SOL    HW1 9352   2.547   1.663   7.139  0.8918 -0.0465  1.0720
 2637SOL    HW2 9353   2.537   1.544   7.233 -0.1008 -0.9449 -0.1367
 2638SOL     OW 9354   0.490   3.806   9.068  0.4503  0.4885  0.5171
 2638SOL    HW1 9355   0.507   3.863   9.143  0.1107  2.3873 -0.7697
 2638SOL    HW2 9356   0.407   3.839   9.032  0.4470 -0.5905 -0.5084
 2639SOL     OW 9357   7.500   2.552  12.310  0.7170 -0.7218 -0.3978
 2639SOL    HW1 9358   7.553   2.483  12.271 -0.2864 -1.2131 -0.9454
 2639SOL    HW2 9359   7.428   2.506  12.354  0.2105 -0.0540 -0.4983
 2640SOL     OW 9360   4.170   1.343  10.301 -0.0625 -0.5942 -0.0102
 2640SOL    HW1 9361   4.187   1.435  10.278 -2.4458  0.1012  0.6483
 2640SOL    HW2 9362   4.133   1.306  10.221 -0.7558 -0.4481  0.2303
 2641SOL     OW 9363   0.570   1.589  11.697  0.2621 -0.1905 -0.0138
 2641SOL    HW1 9364   0.624   1.515  11.726 -0.1392 -0.8398 -0.8792
 2641SOL    HW2 9365   0.628   1.665  11.705  1.0813 -0.7697 -0.2771
 2642SOL     OW 9366   1.103   2.490  10.432 -0.2701 -0.5983 -0.6771
 2642SOL    HW1 9367   1.009   2.490  10.410 -0.2409 -1.2579 -0.8068
 2642SOL    HW2 9368   1.112   2.421  10.497 -0.7712  2.7055  3.3531
 2643SOL     OW 9369   2.529   3.912  10.691 -0.2175  0.0117  0.0686
 2643SOL    HW1 9370   2.573   3.996  10.702 -0.4277  0.3295 -1.3905
 2643SOL    HW2 9371   2.437   3.934  10.682 -0.2162 -0.3347 -0.8179
 2644SOL     OW 9372   2.303   3.512  10.360 -0.1706  0.5145  0.0713
 2644SOL    HW1 9373   2.342   3.552  10.438 -0.2708 -0.1733  0.4822
 2644SOL    HW2 9374   2.212   3.495  10.385  0.2730 -1.5198  0.5381
 2645SOL     OW 9375   0.222   2.418  10.182 -0.1344  0.0185  0.0970
 2645SOL    HW1 9376   0.206   2.343  10.240 -0.1193  0.9563  1.3654
 2645SOL    HW2 9377   0.185   2.493  10.230 -0.7291  0.7378 -1.4233
 2646SOL     OW 9378   0.487   4.395   8.891  0.3376  0.4302 -0.2351
 2646SOL    HW1 9379   0.531   4.335   8.832  0.4774 -2.4033  2.4895
 2646SOL    HW2 9380   0.464   4.341   8.967  0.6470  3.8694  2.5478
 2647SOL     OW 9381   0.272   3.448  10.014  0.4124 -0.1715  0.0274
 2647SOL    HW1 9382   0.213   3.522  10.001 -0.0889 -0.4437  0.6491
 2647SOL    HW2 9383   0.359   3.482   9.995 -0.0570 -0.1262 -2.3528
 2648SOL     OW 9384   0.838   3.119   9.824  0.1872 -0.1380 -0.0052
 2648SOL    HW1 9385   0.785   3.046   9.791  1.0093 -0.1936 -1.2312
 2648SOL    HW2 9386   0.861   3.169   9.747 -1.2384  2.0753  0.9061
 2649SOL     OW 9387   1.702   4.134  10.567 -0.6485 -0.0609  0.1929
 2649SOL    HW1 9388   1.614   4.167  10.549 -1.3544 -0.9194  1.8151
 2649SOL    HW2 9389   1.730   4.182  10.645 -1.1936 -2.2564  1.8518
 2650SOL     OW 9390   0.056   3.144  10.682 -0.2401 -0.2153 -0.1479
 2650SOL    HW1 9391   0.076   3.224  10.731  0.8108 -0.0932 -0.7464
 2650SOL    HW2 9392   0.012   3.174  10.603 -3.5512 -0.5152  1.4131
 2651SOL     OW 9393   1.137   3.026  10.225  0.1369 -0.4217 -0.3748
 2651SOL    HW1 9394   1.191   3.080  10.168 -0.1321  0.9723  0.6326
 2651SOL    HW2 9395   1.052   3.023  10.181 -0.0127  0.4890 -0.1825
 2652SOL     OW 9396   1.578   2.549  10.051  0.3871 -0.0778  0.1606
 2652SOL    HW1 9397   1.658   2.516  10.009  1.0101 -1.3607  2.2078
 2652SOL    HW2 9398   1.516   2.560   9.979  1.4030 -2.1043 -1.1129
 2653SOL     OW 9399   1.684   2.227  10.815 -0.4786  0.3541  0.0781
 2653SOL    HW1 9400   1.702   2.321  10.809 -0.2539  0.2820 -0.4237
 2653SOL    HW2 9401   1.682   2.209  10.909 -2.7355  1.2783  0.2792
 2654SOL     OW 9402   1.175   3.327  10.124 -0.2492  1.4405 -0.3665
 2654SOL    HW1 9403   1.224   3.365  10.052 -1.2264 -0.2919 -2.0326
 2654SOL    HW2 9404   1.084   3.329  10.095 -0.6636  0.6565  0.7913
 2655SOL     OW 9405   3.108   1.736  10.627  0.4880 -0.5137 -0.5259
 2655SOL    HW1 9406   3.189   1.753  10.676 -0.6772 -1.8756  2.0929
 2655SOL    HW2 9407   3.125   1.656  10.579  1.1860  0.0563 -1.2496
 2656SOL     OW 9408   2.524   1.991   9.257  0.2243 -0.7473 -0.3548
 2656SOL    HW1 9409   2.456   2.024   9.316  0.4906 -0.2851 -0.3028
 2656SOL    HW2 9410   2.483   1.991   9.170  0.7016  1.2137 -0.6180
 2657SOL     OW 9411   7.790   2.114  11.603 -0.6006  0.1948 -0.0998
 2657SOL    HW1 9412   7.706   2.069  11.605  0.0257 -1.0584 -0.7705
 2657SOL    HW2 9413   7.784   2.180  11.673 -2.1351  0.1625 -0.1744
 2658SOL     OW 9414   1.721   1.353  10.398 -0.2829  0.5998  0.1065
 2658SOL    HW1 9415   1.670   1.365  10.478  0.7182 -0.3725  0.9296
 2658SOL    HW2 9416   1.754   1.440  10.378 -1.4786  1.0639  0.0923
 2659SOL     OW 9417   6.269   2.778  10.093 -0.2578 -0.5664 -0.3469
 2659SOL    HW1 9418   6.317   2.696  10.108 -1.3055 -0.9635  1.0791
 2659SOL    HW2 9419   6.298   2.835  10.164 -0.7549 -0.2775 -0.3753
 2660SOL     OW 9420   0.077   4.161  10.350  0.5461  0.3293  0.2749
 2660SOL    HW1 9421   0.068   4.096  10.280  1.5592  1.4060 -0.9195
 2660SOL    HW2 9422  -0.005   4.210  10.349  0.5990  0.4149 -0.2654
 2661SOL     OW 9423   0.575   2.855   8.555  0.2019  0.0210  0.5089
 2661SOL    HW1 9424   0.586   2.787   8.488  0.3052 -0.7092  1.2583
 2661SOL    HW2 9425   0.595   2.937   8.509  0.7215 -0.5132 -0.2431
 2662SOL     OW 9426   2.578   3.647  10.667 -0.0857  0.2942 -0.1274
 2662SOL    HW1 9427   2.653   3.643  10.608  1.2615 -0.3388  1.5608
 2662SOL    HW2 9428   2.567   3.740  10.685  0.6781  0.3568  0.0559
 2663SOL     OW 9429   0.018   3.594  11.687  0.2545  0.3736 -0.0954
 2663SOL    HW1 9430   0.074   3.612  11.762 -0.1980 -0.1460  0.3797
 2663SOL    HW2 9431   0.029   3.500  11.670  1.8946  0.8396 -1.9613
 2664SOL     OW 9432   1.558   3.955   8.554 -0.2571 -0.0501  0.4666
 2664SOL    HW1 9433   1.611   3.995   8.623 -0.2140 -0.0302  0.4222
 2664SOL    HW2 9434   1.515   3.881   8.597 -0.9298  0.4880  0.7477
 2665SOL     OW 9435   0.495   3.445  10.850 -0.8175 -0.5832 -0.3114
 2665SOL    HW1 9436   0.554   3.411  10.783  1.6495  0.2564  1.3029
 2665SOL    HW2 9437   0.456   3.523  10.811 -1.4925 -1.5329 -1.6503
 2666SOL     OW 9438   7.401   4.672  10.244 -0.1766  0.2666  0.0066
 2666SOL    HW1 9439   7.401   4.765  10.221  1.0192  0.3738  0.3489
 2666SOL    HW2 9440   7.494   4.651  10.258 -0.5577 -0.6117  1.3747
 2667SOL     OW 9441   2.050   2.143  11.938  0.3904 -0.1769  0.0991
 2667SOL    HW1 9442   1.955   2.129  11.936  0.2441  0.8141 -0.5645
 2667SOL    HW2 9443   2.063   2.215  12.000  0.8874 -1.4507  1.5176
 2668SOL     OW 9444   7.639   2.392   9.073  0.0864 -0.5904 -0.5364
 2668SOL    HW1 9445   7.547   2.382   9.046 -0.1153  1.3867 -0.7209
 2668SOL    HW2 9446   7.686   2.408   8.991  0.4043 -0.4007 -0.3190
 2669SOL     OW 9447   0.776   2.451  10.660  0.0550  0.2422 -0.4641
 2669SOL    HW1 9448   0.790   2.468  10.567  1.4999  1.0395 -0.1248
 2669SOL    HW2 9449   0.746   2.535  10.695  1.0837  0.3969  0.0716
 2670SOL     OW 9450   0.872   1.736   0.609 -0.1302 -0.6052 -0.1346
 2670SOL    HW1 9451   0.959   1.761   0.641  0.4372 -0.6053 -1.5891
 2670SOL    HW2 9452   0.876   1.754   0.515 -2.1242  0.5650 -0.0480
 2671SOL     OW 9453   1.705   3.405   9.986  0.1401  0.0578 -0.5365
 2671SOL    HW1 9454   1.796   3.377  10.002  0.1490  0.3896  0.0457
 2671SOL    HW2 9455   1.712   3.498   9.968 -0.0178 -0.0590 -1.2059
 2672SOL     OW 9456   0.436   3.586   9.650 -0.3239 -0.4889 -0.3274
 2672SOL    HW1 9457   0.418   3.545   9.565  0.6833  0.6984 -1.1444
 2672SOL    HW2 9458   0.384   3.666   9.649 -1.0004 -0.8954  0.5716
 2673SOL     OW 9459   0.788   3.168   9.144  0.0617 -0.4123  0.4434
 2673SOL    HW1 9460   0.814   3.154   9.053  1.1133 -0.5697  0.7627
 2673SOL    HW2 9461   0.809   3.260   9.161 -0.9218 -0.1392  0.2897
 2674SOL     OW 9462   1.968   1.614  12.361  0.2850 -0.0116  0.0812
 2674SOL    HW1 9463   2.026   1.539  12.376  0.9384  0.2870 -0.8623
 2674SOL    HW2 9464   1.943   1.607  12.269 -1.9001 -0.6143  0.6525
 2675SOL     OW 9465   2.090   2.144   8.401  0.1988  0.1827  0.3014
 2675SOL    HW1 9466   2.115   2.191   8.481 -1.2251 -0.1165  0.9588
 2675SOL    HW2 9467   2.016   2.193   8.367 -0.5463 -0.8818  0.3430
 2676SOL     OW 9468   0.846   1.443  10.917 -0.2052  0.5777  0.1211
 2676SOL    HW1 9469   0.919   1.458  10.857  0.3960  0.0167  0.6964
 2676SOL    HW2 9470   0.886   1.402  10.993 -1.3020 -0.9341 -0.0693
 2677SOL     OW 9471   0.101   4.266  10.921  0.2177  0.3702  0.0025
 2677SOL    HW1 9472   0.175   4.253  10.980 -0.4233 -0.2822  0.6705
 2677SOL    HW2 9473   0.125   4.216  10.842  0.2173 -0.3525  0.4545
 2678SOL     OW 9474   1.155   1.672  10.713  0.1309 -0.2198  0.2225
 2678SOL    HW1 9475   1.093   1.711  10.776 -0.1082 -0.3773  0.0871
 2678SOL    HW2 9476   1.236   1.664  10.763 -0.5581 -2.1173  1.1513
 2679SOL     OW 9477   0.943   2.899  11.204 -0.0466 -0.0614 -0.3324
 2679SOL    HW1 9478   0.859   2.886  11.249 -0.4772  0.7591 -0.8848
 2679SOL    HW2 9479   0.953   2.994  11.198  0.6449 -0.1566 -0.7883
 2680SOL     OW 9480   0.626   2.056  10.904 -0.0897  0.1136  0.4259
 2680SOL    HW1 9481   0.550   1.998  10.897  0.3416 -0.7290  2.2821
 2680SOL    HW2 9482   0.671   2.045  10.821 -1.7289  0.2764 -0.5395
 2681SOL     OW 9483   1.005   2.524   9.436  0.3557  0.1063 -0.3727
 2681SOL    HW1 9484   0.986   2.498   9.526 -0.4686  0.6300 -0.3871
 2681SOL    HW2 9485   1.093   2.491   9.420  0.1618 -0.7798  0.3188
 2682SOL     OW 9486   1.996   3.450  11.233  0.3208 -0.2399  0.1016
 2682SOL    HW1 9487   1.916   3.492  11.263 -1.5853 -1.0481 -3.3264
 2682SOL    HW2 9488   2.059   3.521  11.225 -0.7895  0.8308  0.5859
 2683SOL     OW 9489   7.061   2.380  11.483 -0.1431 -0.5813  0.3726
 2683SOL    HW1 9490   7.097   2.393  11.570  0.7690  0.5475 -0.1461
 2683SOL    HW2 9491   7.138   2.364  11.427 -0.6887 -1.0592 -0.2663
 2684SOL     OW 9492   1.418   3.219  10.799  0.4267  0.1341  0.0248
 2684SOL    HW1 9493   1.325   3.235  10.818  0.7412  2.0695  0.1376
 2684SOL    HW2 9494   1.440   3.282  10.730  2.0032  0.7900  1.0563
 2685SOL     OW 9495   7.935   2.144  10.276 -0.3474 -0.2724  0.2325
 2685SOL    HW1 9496   7.872   2.107  10.337 -1.2582  0.3033 -0.3217
 2685SOL    HW2 9497   7.927   2.090  10.197  1.6841 -1.7680  0.9786
 2686SOL     OW 9498   0.599   1.942  10.074  0.4111 -0.2436  0.7947
 2686SOL    HW1 9499   0.528   1.985  10.122 -2.7935  0.1441 -3.6375
 2686SOL    HW2 9500   0.584   1.849  10.089 -1.2852 -0.1808 -0.2140
 2687SOL     OW 9501   1.860   3.687   9.479 -0.7498 -0.1960 -0.6990
 2687SOL    HW1 9502   1.916   3.734   9.541 -0.1501 -0.2170 -1.2190
 2687SOL    HW2 9503   1.804   3.755   9.441  0.1197  0.1092 -1.4518
 2688SOL     OW 9504   0.607   4.399  10.473  0.6401 -0.2304 -0.2952
 2688SOL    HW1 9505   0.698   4.392  10.444  1.2750 -0.5442  1.5776
 2688SOL    HW2 9506   0.581   4.309  10.491  0.5155 -0.0137  0.6693
 2689SOL     OW 9507   2.087   1.047   9.776 -0.5596  0.0449 -0.2208
 2689SOL    HW1 9508   2.001   1.089   9.772 -1.4428 -1.7424 -1.5602
 2689SOL    HW2 9509   2.078   0.978   9.841  0.3825  0.8219  0.7810
 2690SOL     OW 9510   2.434   3.201   8.784 -0.1121  0.0754  0.6012
 2690SOL    HW1 9511   2.357   3.235   8.739 -1.4642 -0.0435  2.7134
 2690SOL    HW2 9512   2.506   3.254   8.750 -1.5833  2.3702  0.8514
 2691SOL     OW 9513   1.557   1.906  11.302 -0.1300  0.2245  0.4906
 2691SOL    HW1 9514   1.571   1.943  11.214 -0.4974  1.4980  0.9409
 2691SOL    HW2 9515   1.463   1.917  11.317 -0.1549 -0.4573  0.8493
 2692SOL     OW 9516   0.612   5.550   9.631  0.1547 -0.1605  0.2401
 2692SOL    HW1 9517   0.638   5.594   9.550 -0.1387 -1.0493 -0.3477
 2692SOL    HW2 9518   0.557   5.477   9.602 -1.1858  0.3832  1.3147
 2693SOL     OW 9519   7.707   4.373   9.561  0.1310 -0.0782 -0.1261
 2693SOL    HW1 9520   7.790   4.331   9.542  0.5312  0.0435  1.2547
 2693SOL    HW2 9521   7.661   4.375   9.477  0.9991 -1.2677 -0.6494
 2694SOL     OW 9522   7.809   0.540  10.545  0.1166 -0.0156 -0.1582
 2694SOL    HW1 9523   7.852   0.520  10.629 -0.4806 -0.2682  0.0936
 2694SOL    HW2 9524   7.861   0.612  10.508 -0.5985  1.2864  1.2331
 2695SOL     OW 9525   7.763   2.773  11.445  0.4677 -0.2400 -0.1896
 2695SOL    HW1 9526   7.850   2.788  11.482 -0.3576  0.9250  1.4088
 2695SOL    HW2 9527   7.777   2.773  11.350  2.2267 -0.2926  0.0340
 2696SOL     OW 9528   0.271   3.065  11.382 -0.9270  0.1444  0.3376
 2696SOL    HW1 9529   0.275   3.138  11.320 -1.2001 -0.7157 -0.7129
 2696SOL    HW2 9530   0.337   3.087  11.448  0.1375  0.5831 -0.8199
 2697SOL     OW 9531   0.426   1.877  11.789  0.0232 -0.2029 -0.1413
 2697SOL    HW1 9532   0.469   1.962  11.795 -0.1379 -0.2052  1.3999
 2697SOL    HW2 9533   0.494   1.814  11.813 -0.4548 -0.2994  1.0457
 2698SOL     OW 9534   3.034   4.800  11.934  0.5406  0.2508  0.1056
 2698SOL    HW1 9535   3.063   4.735  11.870 -1.7614 -0.2899 -0.4954
 2698SOL    HW2 9536   3.080   4.880  11.910  0.8954 -0.3348 -1.2643
 2699SOL     OW 9537   0.610   0.486   1.267  0.4795 -0.4704  0.1588
 2699SOL    HW1 9538   0.518   0.512   1.272  0.1929 -1.6115  2.5714
 2699SOL    HW2 9539   0.616   0.432   1.188 -0.6813  0.4013 -0.5447
 2700SOL     OW 9540   0.624   1.832   0.274 -0.3194  0.5995 -0.1126
 2700SOL    HW1 9541   0.670   1.748   0.266 -0.3349  0.5231  0.5512
 2700SOL    HW2 9542   0.676   1.883   0.335 -0.4411  0.9874 -0.3294
 2701SOL     OW 9543   7.653   2.349  12.171 -0.1459  0.3802 -0.2190
 2701SOL    HW1 9544   7.612   2.299  12.100 -0.5977  0.0226  0.2820
 2701SOL    HW2 9545   7.646   2.292  12.247 -0.5613  1.1687  0.3435
 2702SOL     OW 9546   2.478   3.468  12.498 -0.2308  0.5691 -0.2443
 2702SOL    HW1 9547   2.512   3.424  12.420 -0.4204  1.1657 -0.6620
 2702SOL    HW2 9548   2.408   3.524  12.466 -1.1691 -0.1411  0.5231
 2703SOL     OW 9549   0.194   3.736  11.843 -0.0742  0.0830  0.0688
 2703SOL    HW1 9550   0.200   3.781  11.759 -0.9430  0.5299  0.2362
 2703SOL    HW2 9551   0.174   3.805  11.906 -1.1683 -0.4971  0.3725
 2704SOL     OW 9552   1.190   2.275  10.608 -0.1508 -0.1867 -0.9698
 2704SOL    HW1 9553   1.120   2.279  10.673  0.9881  0.6018  0.2765
 2704SOL    HW2 9554   1.270   2.291  10.659  0.6787  1.8411 -2.7366
 2705SOL     OW 9555   0.583   4.314  12.171  0.4091 -0.7629  0.3408
 2705SOL    HW1 9556   0.600   4.301  12.264  2.7297  0.2197  0.1397
 2705SOL    HW2 9557   0.497   4.356  12.168  0.5788 -0.2104  2.0948
 2706SOL     OW 9558   0.255   2.048   1.827  0.3435  0.1056  0.2504
 2706SOL    HW1 9559   0.350   2.037   1.831  0.5971  1.8285 -0.0974
 2706SOL    HW2 9560   0.232   2.023   1.738  0.7034  1.0224 -0.1165
 2707SOL     OW 9561   0.155   0.745   0.093 -0.1893 -0.3161  0.2025
 2707SOL    HW1 9562   0.222   0.788   0.146  1.2902 -1.8175 -0.3262
 2707SOL    HW2 9563   0.133   0.808   0.025 -2.0550  1.6106  2.4422
 2708SOL     OW 9564   1.132   1.536  10.445 -0.3339  0.6345 -0.3068
 2708SOL    HW1 9565   1.147   1.595  10.519  1.7330 -0.2180 -0.0014
 2708SOL    HW2 9566   1.210   1.545  10.391 -1.0713 -0.0316 -1.5243
 2709SOL     OW 9567   0.159   3.383   0.104 -0.1112  0.2190  0.4825
 2709SOL    HW1 9568   0.174   3.433   0.024 -0.9468  0.3007  0.3679
 2709SOL    HW2 9569   0.115   3.303   0.074  1.3277 -0.6817  0.6433
 2710SOL     OW 9570   0.668   4.190   9.849  0.0923  0.7545 -0.3186
 2710SOL    HW1 9571   0.629   4.231   9.927 -0.9122 -0.3716 -0.1935
 2710SOL    HW2 9572   0.755   4.230   9.842 -1.0298  3.3887 -0.6028
 2711SOL     OW 9573   7.626   4.650   0.286 -0.1412  0.0364  0.1573
 2711SOL    HW1 9574   7.706   4.662   0.235  1.0624  1.6417  2.2493
 2711SOL    HW2 9575   7.567   4.601   0.228  1.5299  0.7393 -2.2720
 2712SOL     OW 9576   1.970   3.105   0.292 -0.6487  0.6013 -0.0163
 2712SOL    HW1 9577   1.998   3.189   0.257 -0.9665  0.8238  0.2529
 2712SOL    HW2 9578   1.995   3.108   0.384 -1.4666  0.7781  0.2162
 2713SOL     OW 9579   0.482   3.775   0.912 -0.2194  0.0548  0.1007
 2713SOL    HW1 9580   0.512   3.852   0.960 -0.4183  1.1676 -1.4798
 2713SOL    HW2 9581   0.512   3.790   0.822  1.2782 -2.5416  0.0519
 2714SOL     OW 9582   1.033   3.531  12.481  0.2654  0.0446 -0.5062
 2714SOL    HW1 9583   0.950   3.520  12.528 -0.1301 -2.0125 -1.5865
 2714SOL    HW2 9584   1.065   3.616  12.510 -2.5156  1.2007 -0.5104
 2715SOL     OW 9585   2.049   2.783   0.141  0.2448 -0.0487 -0.3388
 2715SOL    HW1 9586   2.101   2.844   0.089 -0.3725 -0.3081 -1.2832
 2715SOL    HW2 9587   1.990   2.838   0.191  0.8963  0.2094  0.1629
 2716SOL     OW 9588   7.583   1.133  10.356  0.4697  0.1055  0.0521
 2716SOL    HW1 9589   7.603   1.225  10.338 -0.3590  0.2460 -0.1950
 2716SOL    HW2 9590   7.562   1.131  10.450  0.9425  0.0855  0.1567
 2717SOL     OW 9591   1.532   3.212  11.487 -0.2676 -0.4681  0.9296
 2717SOL    HW1 9592   1.592   3.166  11.546  0.6512  0.1053  0.4584
 2717SOL    HW2 9593   1.490   3.143  11.436  1.2495 -0.7834  0.0794
 2718SOL     OW 9594   2.702   1.252  10.508 -0.2293 -0.4162  0.2954
 2718SOL    HW1 9595   2.717   1.278  10.417  3.5452  1.7903  1.3313
 2718SOL    HW2 9596   2.607   1.252  10.518 -0.7271  2.6001 -2.7962
 2719SOL     OW 9597   0.777   2.029  10.683  0.1508 -0.0521  0.0317
 2719SOL    HW1 9598   0.750   1.974  10.609  0.5182 -0.4905  0.2166
 2719SOL    HW2 9599   0.870   2.010  10.693  0.2622  0.5412  0.1585
 2720SOL     OW 9600   1.714   5.526  11.476  0.2901  0.6784 -0.2151
 2720SOL    HW1 9601   1.790   5.529  11.417  0.2519  0.6300 -0.2671
 2720SOL    HW2 9602   1.751   5.506  11.562  0.2870  0.1083 -0.3368
 2721SOL     OW 9603   0.716   2.646  12.260 -0.1803  0.3999 -0.1890
 2721SOL    HW1 9604   0.670   2.730  12.269 -1.5234 -0.2905 -0.3655
 2721SOL    HW2 9605   0.689   2.614  12.174  1.1423  0.2516 -0.5635
 2722SOL     OW 9606   7.938   0.827   0.383  0.1957 -0.2302 -0.2433
 2722SOL    HW1 9607   7.878   0.812   0.310 -0.0115 -1.4364  0.1569
 2722SOL    HW2 9608   7.937   0.922   0.395 -1.5125 -0.2069 -0.3473
 2723SOL     OW 9609   3.384   5.525  11.304  0.3728 -0.2409  0.3988
 2723SOL    HW1 9610   3.346   5.459  11.247  0.7320 -1.0894  1.1108
 2723SOL    HW2 9611   3.475   5.532  11.275  1.0230 -1.9027  1.9013
 2724SOL     OW 9612   7.586   3.455   0.206  0.6855 -0.5083  0.4553
 2724SOL    HW1 9613   7.552   3.526   0.261  0.9124 -1.0340  1.3070
 2724SOL    HW2 9614   7.520   3.442   0.138 -0.0004 -0.3826  1.0850
 2725SOL     OW 9615   0.851   2.028   0.371  0.0300 -0.1902  0.0489
 2725SOL    HW1 9616   0.866   2.074   0.288  0.6101  0.2514  0.3892
 2725SOL    HW2 9617   0.939   2.009   0.404 -0.1614  0.7194  1.1449
 2726SOL     OW 9618   7.261   2.074  11.710 -0.2066 -0.3883 -0.7890
 2726SOL    HW1 9619   7.235   2.138  11.776 -0.0447 -0.5648 -0.5493
 2726SOL    HW2 9620   7.340   2.110  11.670 -0.2164 -0.3540 -0.7781
 2727SOL     OW 9621   0.549   3.609   0.463 -0.0629 -0.5150 -0.1150
 2727SOL    HW1 9622   0.575   3.679   0.522 -1.2334 -0.4458  0.3387
 2727SOL    HW2 9623   0.455   3.623   0.448 -0.6218 -2.6867  0.9907
 2728SOL     OW 9624   0.758   2.220  12.333  0.0534 -0.1607 -0.5859
 2728SOL    HW1 9625   0.833   2.262  12.292  0.0470  0.0940 -0.3383
 2728SOL    HW2 9626   0.761   2.129  12.302 -0.0570  0.0685 -1.3001
 2729SOL     OW 9627   1.555   4.013   0.013  0.0900  0.6423  0.0041
 2729SOL    HW1 9628   1.592   3.924   0.014 -0.0182  0.5969  0.1434
 2729SOL    HW2 9629   1.576   4.047   0.100 -2.1153 -0.1907  0.9294
 2730SOL     OW 9630   1.751   4.052  11.968  0.4801  0.1579  0.4894
 2730SOL    HW1 9631   1.768   4.070  12.060 -0.2621 -2.0966  1.1309
 2730SOL    HW2 9632   1.660   4.022  11.966 -0.1137  1.8606 -1.2802
 2731SOL     OW 9633   1.546   2.292  11.151 -0.2116  0.5265 -0.2898
 2731SOL    HW1 9634   1.597   2.364  11.114  0.2655  0.7606  0.7677
 2731SOL    HW2 9635   1.455   2.314  11.130 -0.5608  3.5657  3.1868
 2732SOL     OW 9636   0.148   4.348  11.862  0.3132 -0.1391  0.6662
 2732SOL    HW1 9637   0.143   4.289  11.786  0.2919 -1.0388  1.3481
 2732SOL    HW2 9638   0.076   4.321  11.919 -0.2475  1.1481  0.5961
 2733SOL     OW 9639   2.120   4.583  11.216 -0.4072  0.4461  0.3939
 2733SOL    HW1 9640   2.140   4.495  11.245 -0.5607  0.2488 -0.0857
 2733SOL    HW2 9641   2.199   4.634  11.235  0.6540 -0.3464 -1.6171
 2734SOL     OW 9642   1.767   4.195  11.350  0.2084  0.2392 -0.2162
 2734SOL    HW1 9643   1.717   4.275  11.365  0.1519  0.3743 -1.1224
 2734SOL    HW2 9644   1.836   4.198  11.417 -2.2775 -1.1109  2.6456
 2735SOL     OW 9645   1.053   3.662  10.160 -0.1239 -0.3123 -0.3395
 2735SOL    HW1 9646   1.040   3.640  10.068  0.4050  0.5199 -0.6218
 2735SOL    HW2 9647   0.986   3.611  10.207  0.6248 -1.9747 -1.0056
 2736SOL     OW 9648   1.650   2.673  11.694 -0.0498  0.4193 -0.6348
 2736SOL    HW1 9649   1.584   2.652  11.628  1.3922 -2.2998 -1.3695
 2736SOL    HW2 9650   1.604   2.661  11.778 -0.6360 -1.1730 -1.1328
 2737SOL     OW 9651   0.648   3.852   0.676  0.2538  0.1015  0.6581
 2737SOL    HW1 9652   0.693   3.908   0.612 -0.8066 -0.5558 -0.7001
 2737SOL    HW2 9653   0.718   3.800   0.714  0.8359 -0.0557 -0.5592
 2738SOL     OW 9654   0.105   6.928   1.010  0.5053 -0.3599  0.3227
 2738SOL    HW1 9655   0.037   6.970   1.064  2.0318 -1.1421  3.0475
 2738SOL    HW2 9656   0.058   6.859   0.963 -1.0672  0.9412 -0.1335
 2739SOL     OW 9657   0.357   2.991   1.038  0.4815  0.6223  0.1312
 2739SOL    HW1 9658   0.274   2.945   1.050  0.6931  0.4639  1.0351
 2739SOL    HW2 9659   0.424   2.924   1.053  0.8083  1.3789  2.3436
 2740SOL     OW 9660   1.037   4.910   2.140  0.4913  0.4833  0.0137
 2740SOL    HW1 9661   1.022   5.001   2.165 -3.5366  0.4390 -1.4680
 2740SOL    HW2 9662   0.989   4.859   2.205  0.5070 -0.3968 -0.6375
 2741SOL     OW 9663   0.205   4.613   9.622 -0.1574 -0.0439  0.1298
 2741SOL    HW1 9664   0.197   4.555   9.698  0.7555 -0.1797  0.1249
 2741SOL    HW2 9665   0.126   4.595   9.570 -0.9800  0.3280  1.2259
 2742SOL     OW 9666   1.247   1.268  11.772  0.3643 -0.2171  0.0316
 2742SOL    HW1 9667   1.322   1.291  11.826  0.9108 -0.8151 -0.4445
 2742SOL    HW2 9668   1.228   1.347  11.722  0.7029 -0.0644  0.1410
 2743SOL     OW 9669   0.500   2.939   0.598 -0.1152 -0.2838 -0.0951
 2743SOL    HW1 9670   0.452   3.019   0.576 -0.2467 -0.5120 -0.6422
 2743SOL    HW2 9671   0.568   2.969   0.659 -1.7158 -0.1567  1.7102
 2744SOL     OW 9672   6.993   4.311  11.175  0.0476  0.4915  0.4125
 2744SOL    HW1 9673   6.969   4.267  11.257 -0.7348  0.4504  0.1711
 2744SOL    HW2 9674   7.082   4.281  11.157 -0.2373 -0.5030  0.5934
 2745SOL     OW 9675   0.395   1.806  10.558 -0.3271  0.0584  0.7939
 2745SOL    HW1 9676   0.387   1.813  10.654 -3.0225 -0.2331  0.6791
 2745SOL    HW2 9677   0.362   1.890  10.526 -0.2299 -0.1630  0.1110
 2746SOL     OW 9678   2.886   3.670   9.504 -0.6199  0.3733 -0.4503
 2746SOL    HW1 9679   2.948   3.713   9.563  0.0305 -1.4683  0.3058
 2746SOL    HW2 9680   2.896   3.716   9.420  2.1122 -0.0769 -0.4716
 2747SOL     OW 9681   0.428   1.860  11.264  0.0293 -0.1988  0.0653
 2747SOL    HW1 9682   0.337   1.839  11.285  0.3999 -2.0464 -0.0046
 2747SOL    HW2 9683   0.479   1.791  11.307  1.2807 -0.0563 -1.1110
 2748SOL     OW 9684   2.598   0.452  10.394 -0.2797 -0.4568 -0.0716
 2748SOL    HW1 9685   2.623   0.488  10.309  0.6889 -1.3249 -0.1631
 2748SOL    HW2 9686   2.672   0.472  10.451 -1.2445  0.8208  0.7985
 2749SOL     OW 9687   0.607   4.104  10.461  0.3380  0.7366  0.5431
 2749SOL    HW1 9688   0.645   4.122  10.375  1.3791  0.6023  0.9575
 2749SOL    HW2 9689   0.516   4.130  10.453 -0.1253 -1.1963 -1.2422
 2750SOL     OW 9690   1.466   2.312   0.481  0.4755 -0.1332  0.0917
 2750SOL    HW1 9691   1.524   2.261   0.539  0.6074 -1.4711 -1.1779
 2750SOL    HW2 9692   1.525   2.352   0.418  0.2371  0.5707  0.3059
 2751SOL     OW 9693   7.998   3.178   0.071 -0.3401  0.3999  0.2637
 2751SOL    HW1 9694   7.920   3.180   0.016  1.1227  0.3911 -1.9138
 2751SOL    HW2 9695   8.035   3.091   0.057  0.4051  0.6243  0.7913
 2752SOL     OW 9696   0.570   1.682  11.406  0.1031 -0.3854  0.1869
 2752SOL    HW1 9697   0.545   1.692  11.498  2.5849  0.1745  0.8836
 2752SOL    HW2 9698   0.660   1.648  11.409  0.5716  0.4904 -2.0014
 2753SOL     OW 9699   1.302   2.301  12.164  0.0339  0.1272 -0.1141
 2753SOL    HW1 9700   1.322   2.389  12.196  1.1643 -0.1903  0.0943
 2753SOL    HW2 9701   1.275   2.252  12.241 -1.3776  0.4948 -0.3585
 2754SOL     OW 9702   0.198   3.194   0.402  0.3329 -0.1130 -0.3357
 2754SOL    HW1 9703   0.190   3.167   0.494  2.7084  2.0662  0.6178
 2754SOL    HW2 9704   0.259   3.131   0.364 -1.9554 -2.0835 -1.0238
 2755SOL     OW 9705   1.092   2.254  11.187  0.1002 -0.4662 -0.4043
 2755SOL    HW1 9706   1.012   2.304  11.203  0.2184 -0.9057  2.0663
 2755SOL    HW2 9707   1.152   2.317  11.148 -0.6457  0.5689  0.0666
 2756SOL     OW 9708   2.532   4.466  11.282  0.8208  0.1009 -0.0001
 2756SOL    HW1 9709   2.618   4.439  11.249  1.0008  0.0206  0.5288
 2756SOL    HW2 9710   2.546   4.555  11.314  0.7882 -0.0349  0.3934
 2757SOL     OW 9711   1.104   2.768  11.448 -0.0139  0.2191  0.5172
 2757SOL    HW1 9712   1.054   2.812  11.380  2.3281 -0.0974 -1.5784
 2757SOL    HW2 9713   1.041   2.713  11.494 -2.4470  3.3941  1.2737
 2758SOL     OW 9714   2.931   3.321  11.042  0.2642 -0.0096 -0.0026
 2758SOL    HW1 9715   2.944   3.345  11.133  0.6015 -0.5073  0.0829
 2758SOL    HW2 9716   2.836   3.316  11.032  0.2362 -0.9879  0.6068
 2759SOL     OW 9717   0.315   4.108  12.359 -0.5928  0.0932  0.2774
 2759SOL    HW1 9718   0.317   4.194  12.400 -0.1280  0.0705  0.3096
 2759SOL    HW2 9719   0.235   4.108  12.307 -1.4326 -0.0500  1.5343
 2760SOL     OW 9720   2.747   3.756  12.133 -0.3347  0.0839 -0.2131
 2760SOL    HW1 9721   2.800   3.700  12.077  0.7248  0.1763  0.6590
 2760SOL    HW2 9722   2.685   3.697  12.176 -1.3086  0.0429 -1.6065
 2761SOL     OW 9723   0.324   1.390  12.309  0.3137  0.0102 -0.3176
 2761SOL    HW1 9724   0.377   1.320  12.345  0.8043  0.4295 -0.2121
 2761SOL    HW2 9725   0.244   1.389  12.362 -0.1605 -1.1679 -1.0244
 2762SOL     OW 9726   1.303   2.097  10.925 -0.1849 -0.4194  0.6053
 2762SOL    HW1 9727   1.214   2.067  10.940 -0.1083 -0.7731  0.3532
 2762SOL    HW2 9728   1.297   2.193  10.929 -0.4316 -0.4600  1.3907
 2763SOL     OW 9729   1.593   2.620  11.381  0.0889 -0.6898 -0.6615
 2763SOL    HW1 9730   1.586   2.526  11.366  1.1260 -0.7168 -1.0380
 2763SOL    HW2 9731   1.529   2.659  11.321 -3.3045 -1.2913  2.2475
 2764SOL     OW 9732   1.732   2.911  11.917 -0.1712 -0.1772  0.1160
 2764SOL    HW1 9733   1.811   2.860  11.904  0.4052 -0.1181  2.9470
 2764SOL    HW2 9734   1.662   2.846  11.923 -0.1525 -0.3074 -0.8007
 2765SOL     OW 9735   0.539   3.149  10.894 -0.2273  0.0220  0.1403
 2765SOL    HW1 9736   0.609   3.190  10.844 -0.4869 -0.3297 -0.5201
 2765SOL    HW2 9737   0.464   3.207  10.883 -0.1940  0.1163  0.3993
 2766SOL     OW 9738   1.492   3.485  12.068  0.0941 -0.3655  0.2867
 2766SOL    HW1 9739   1.569   3.445  12.109  0.9577  1.2457  0.3331
 2766SOL    HW2 9740   1.519   3.575  12.050 -1.3690 -0.1159 -0.8656
 2767SOL     OW 9741   0.011   4.253   1.302  0.0872  0.0226  0.7239
 2767SOL    HW1 9742   0.090   4.294   1.266  1.6416 -1.0645  2.7000
 2767SOL    HW2 9743   0.030   4.159   1.300 -0.9967 -0.2299  1.5791
 2768SOL     OW 9744   0.778   3.129  10.514 -1.1499  0.3673 -0.0478
 2768SOL    HW1 9745   0.780   3.160  10.424 -1.8610 -0.1189 -0.2406
 2768SOL    HW2 9746   0.794   3.034  10.507 -1.2914  0.3140  0.3262
 2769SOL     OW 9747   1.424   2.505   0.917 -0.0682 -0.4268  0.5362
 2769SOL    HW1 9748   1.433   2.422   0.871 -0.5506  0.2262 -0.7686
 2769SOL    HW2 9749   1.407   2.570   0.849 -1.0259  0.5452  1.6364
 2770SOL     OW 9750   1.864   2.990  11.203  0.0261  0.5677 -0.3097
 2770SOL    HW1 9751   1.836   2.923  11.265  0.9447  0.3318 -0.1347
 2770SOL    HW2 9752   1.959   2.982  11.200  0.0360  0.8921 -1.3944
 2771SOL     OW 9753   1.339   3.594  12.334  0.4119  1.2364 -0.6570
 2771SOL    HW1 9754   1.298   3.638  12.408 -0.3131  1.4682 -1.1859
 2771SOL    HW2 9755   1.370   3.665  12.278  1.6577  1.0643 -0.2085
 2772SOL     OW 9756   1.556   2.691  11.967  0.1562 -0.3627 -0.6320
 2772SOL    HW1 9757   1.462   2.708  11.959  0.4061  0.6242 -1.7707
 2772SOL    HW2 9758   1.574   2.704  12.060 -0.7937 -0.3178 -0.4399
 2773SOL     OW 9759   7.600   3.146   0.188  0.0565  0.3428 -0.0091
 2773SOL    HW1 9760   7.595   3.231   0.231 -1.3397 -0.0177  0.5750
 2773SOL    HW2 9761   7.643   3.164   0.104 -0.9442  1.7663 -0.2476
 2774SOL     OW 9762   1.632   3.077  11.724 -0.0509 -0.3573 -0.7067
 2774SOL    HW1 9763   1.575   3.120  11.788  0.5077 -1.0118  0.2618
 2774SOL    HW2 9764   1.682   3.014  11.776  1.3762  0.0218 -1.5643
 2775SOL     OW 9765   2.418   1.589  12.205 -0.9890  0.2624  0.2562
 2775SOL    HW1 9766   2.395   1.587  12.112 -1.8800  1.1111  0.4440
 2775SOL    HW2 9767   2.512   1.573  12.207 -1.1111 -0.6654 -0.7243
 2776SOL     OW 9768   2.264   2.684   0.707  0.2491  0.6488  0.4432
 2776SOL    HW1 9769   2.267   2.773   0.671  1.1711  0.2033 -0.6547
 2776SOL    HW2 9770   2.327   2.686   0.779 -0.8098  1.2619  1.3699
 2777SOL     OW 9771   1.274   2.464  10.820  0.0476 -0.1527 -0.3296
 2777SOL    HW1 9772   1.316   2.511  10.748 -0.8148 -0.2933 -0.9345
 2777SOL    HW2 9773   1.180   2.483  10.810 -0.0072  0.5485  1.2743
 2778SOL     OW 9774   7.573   2.329   0.884  0.2559 -0.5280  0.5844
 2778SOL    HW1 9775   7.619   2.412   0.896 -1.5038  0.8095 -1.1817
 2778SOL    HW2 9776   7.486   2.354   0.855  0.2803 -2.9935 -2.0985
 2779SOL     OW 9777   7.824   3.071  11.957 -0.3205 -0.3443 -0.3262
 2779SOL    HW1 9778   7.749   3.118  11.995 -1.6909 -1.1297 -1.9103
 2779SOL    HW2 9779   7.849   3.008  12.024  0.1430  1.1303  0.9555
 2780SOL     OW 9780   0.580   2.487  12.065 -0.4361  0.0372  0.0297
 2780SOL    HW1 9781   0.565   2.399  12.030  0.4959 -0.0731 -0.1319
 2780SOL    HW2 9782   0.634   2.530  11.999 -1.0546  0.8071  0.0164
 2781SOL     OW 9783   3.819   1.931  10.242  0.8068 -0.3558 -0.4763
 2781SOL    HW1 9784   3.772   2.012  10.260 -0.7887 -1.4953  0.9211
 2781SOL    HW2 9785   3.866   1.947  10.160 -3.4307  0.3917 -3.0837
 2782SOL     OW 9786   1.055   1.580   0.408 -0.2365 -0.6526  0.2304
 2782SOL    HW1 9787   1.088   1.501   0.367 -0.3725  0.1463 -1.4868
 2782SOL    HW2 9788   1.086   1.575   0.499  1.0497 -1.9067 -0.2505
 2783SOL     OW 9789   0.352   1.377   0.750  0.3434  0.0624 -0.1991
 2783SOL    HW1 9790   0.342   1.301   0.808 -0.4836 -0.3165 -0.8205
 2783SOL    HW2 9791   0.414   1.434   0.796 -1.4941  0.5276  1.8336
 2784SOL     OW 9792   0.496   2.474   0.385 -0.0858  0.0330 -0.0254
 2784SOL    HW1 9793   0.420   2.463   0.443 -0.0807  1.0957  0.2029
 2784SOL    HW2 9794   0.560   2.521   0.438  0.1047  0.5918 -0.7415
 2785SOL     OW 9795   7.452   3.465  11.075 -0.3474 -0.0671 -0.6057
 2785SOL    HW1 9796   7.375   3.521  11.075  0.5935  1.4948  2.4129
 2785SOL    HW2 9797   7.525   3.525  11.089  0.9203 -1.8313  0.9255
 2786SOL     OW 9798   0.684   0.875  11.162  0.1443  0.0843  0.0946
 2786SOL    HW1 9799   0.737   0.927  11.223 -1.1725  0.6828  0.7501
 2786SOL    HW2 9800   0.700   0.914  11.076  1.2152 -0.1243  0.1784
 2787SOL     OW 9801   0.014   3.431  11.015  0.0365  0.0574 -0.4174
 2787SOL    HW1 9802   0.015   3.447  10.921  1.7642 -0.6840 -0.5626
 2787SOL    HW2 9803   0.094   3.472  11.048  0.0666 -0.7198  0.5345
 2788SOL     OW 9804   1.768   2.193   0.420  0.2637 -0.2906  0.1317
 2788SOL    HW1 9805   1.748   2.100   0.423 -0.1121 -0.2019  0.4236
 2788SOL    HW2 9806   1.852   2.198   0.374 -0.5350 -0.6551 -1.4530
 2789SOL     OW 9807   7.542   1.343  11.101  0.2733 -0.1014 -0.4575
 2789SOL    HW1 9808   7.637   1.336  11.089  0.5399 -0.5762  1.5017
 2789SOL    HW2 9809   7.528   1.315  11.192 -1.8088 -0.5379 -0.8685
 2790SOL     OW 9810   0.134   4.000   1.321 -0.0855  0.0775 -0.5822
 2790SOL    HW1 9811   0.143   3.917   1.275  0.4343  0.6055 -1.4650
 2790SOL    HW2 9812   0.149   3.979   1.413 -2.6845 -1.2865 -0.3911
 2791SOL     OW 9813   2.279   4.222   0.191  0.3481  0.1290  0.0655
 2791SOL    HW1 9814   2.285   4.173   0.273  2.7921  0.9125  0.4625
 2791SOL    HW2 9815   2.210   4.286   0.207  0.6844  0.1849  1.5023
 2792SOL     OW 9816   1.118   3.409   1.150  0.1827  0.3169 -0.4142
 2792SOL    HW1 9817   1.184   3.402   1.081  0.3124  0.0633 -0.2675
 2792SOL    HW2 9818   1.036   3.386   1.106  0.0896  1.2477 -0.7453
 2793SOL     OW 9819   7.787   2.413   9.302  0.3003 -0.2509 -0.1610
 2793SOL    HW1 9820   7.766   2.421   9.209 -0.0154  0.8523 -0.0158
 2793SOL    HW2 9821   7.705   2.383   9.342  0.1147  0.3086 -0.1081
 2794SOL     OW 9822   7.968   0.117   0.428 -0.0758 -0.6973  0.5524
 2794SOL    HW1 9823   8.048   0.118   0.375 -0.5627  2.0294 -0.2552
 2794SOL    HW2 9824   7.901   0.083   0.370  0.1940 -1.7507  0.8260
 2795SOL     OW 9825   0.791   1.571  12.430 -0.2517 -0.5365  0.1600
 2795SOL    HW1 9826   0.746   1.500  12.475 -0.0330 -0.6980  0.1298
 2795SOL    HW2 9827   0.761   1.566  12.340 -3.6584  2.1430  0.9290
 2796SOL     OW 9828   0.485   5.629   0.940  0.3756 -0.1018 -0.4827
 2796SOL    HW1 9829   0.507   5.537   0.954  1.1494 -0.2383 -2.2634
 2796SOL    HW2 9830   0.392   5.629   0.920  0.1626 -0.3625  0.4555
 2797SOL     OW 9831   3.162   3.313  12.228  0.5609 -0.7020 -0.4721
 2797SOL    HW1 9832   3.257   3.319  12.227  0.5883  0.5904  1.9530
 2797SOL    HW2 9833   3.143   3.229  12.271  0.6476 -0.2284  0.5116
 2798SOL     OW 9834   0.780   3.438   9.789  0.1922  0.5735  0.1244
 2798SOL    HW1 9835   0.846   3.418   9.722 -0.0500  3.6852 -1.1844
 2798SOL    HW2 9836   0.706   3.382   9.766  1.4342 -1.1721  0.1313
 2799SOL     OW 9837   1.536   3.692  11.471 -0.0540 -0.0545  0.3992
 2799SOL    HW1 9838   1.548   3.770  11.417 -1.0309  0.1987  0.5245
 2799SOL    HW2 9839   1.543   3.619  11.409  0.3743  0.1561  0.1967
 2800SOL     OW 9840   2.194   2.028  11.725 -0.0343  0.0280  0.5619
 2800SOL    HW1 9841   2.160   2.053  11.812  1.8932 -0.3533  1.4663
 2800SOL    HW2 9842   2.150   2.089  11.665 -1.6112  0.1386  1.7489
 2801SOL     OW 9843   2.175   3.461   0.542  0.4291  0.2046 -0.5716
 2801SOL    HW1 9844   2.256   3.477   0.495  0.7148 -0.3507 -0.2816
 2801SOL    HW2 9845   2.203   3.432   0.629 -0.0737 -0.1714 -0.5298
 2802SOL     OW 9846   1.580   4.032   1.026 -0.8556 -0.1888  0.2909
 2802SOL    HW1 9847   1.487   4.050   1.037 -0.8033 -0.4206  1.2377
 2802SOL    HW2 9848   1.583   3.950   0.977 -1.1073  1.0188 -1.8847
 2803SOL     OW 9849   7.438   2.584  11.913  0.3624  0.1769 -0.0721
 2803SOL    HW1 9850   7.428   2.543  11.826 -2.0466  0.2335  0.1150
 2803SOL    HW2 9851   7.410   2.516  11.974  0.8866  0.5516  0.5878
 2804SOL     OW 9852   1.120   1.994   0.428  0.7390  0.0160 -0.3989
 2804SOL    HW1 9853   1.194   2.039   0.387  2.3168 -2.1822 -0.1208
 2804SOL    HW2 9854   1.158   1.950   0.505 -1.3544  0.7715  1.1718
 2805SOL     OW 9855   7.448   5.059  10.926 -0.0709 -0.2303 -0.2241
 2805SOL    HW1 9856   7.387   4.986  10.939  0.0860 -0.2780  0.2346
 2805SOL    HW2 9857   7.425   5.093  10.839 -1.1576  0.1309  0.1801
 2806SOL     OW 9858   0.990   3.470  10.908  0.0573 -0.4284  0.5819
 2806SOL    HW1 9859   1.068   3.525  10.917 -1.3916  1.7972  0.4276
 2806SOL    HW2 9860   0.952   3.497  10.825 -1.2292 -0.9777  0.9745
 2807SOL     OW 9861   0.246   5.160  10.400 -0.0097  0.3017 -0.0587
 2807SOL    HW1 9862   0.266   5.110  10.479 -0.2767  1.1566  0.5748
 2807SOL    HW2 9863   0.195   5.100  10.346  1.3165 -0.7422 -0.1853
 2808SOL     OW 9864   3.127   5.259   0.107  0.4086  0.3501  0.6100
 2808SOL    HW1 9865   3.175   5.239   0.187  0.2782  0.3542  0.6890
 2808SOL    HW2 9866   3.183   5.226   0.036 -0.3017 -1.2861  0.7734
 2809SOL     OW 9867   1.628   2.676   1.208  0.2302 -0.1612 -0.2231
 2809SOL    HW1 9868   1.656   2.763   1.180 -0.0925  0.0882  0.2228
 2809SOL    HW2 9869   1.633   2.679   1.304 -0.9009 -0.2587 -0.1541
 2810SOL     OW 9870   7.495   1.316  11.405 -0.1692 -0.2116 -0.5300
 2810SOL    HW1 9871   7.520   1.264  11.481 -1.0357  1.0735  0.6723
 2810SOL    HW2 9872   7.543   1.398  11.416 -1.8044  0.7424 -0.3073
 2811SOL     OW 9873   6.882   2.974   9.692 -0.2311 -0.1043 -0.5970
 2811SOL    HW1 9874   6.967   2.958   9.650 -1.0035  0.9758 -2.7356
 2811SOL    HW2 9875   6.884   3.067   9.716  0.5642 -0.8860  2.8805
 2812SOL     OW 9876   1.100   4.515   1.375 -0.8170 -0.3028 -0.2982
 2812SOL    HW1 9877   1.068   4.432   1.409  1.1383 -1.1793 -0.4503
 2812SOL    HW2 9878   1.026   4.576   1.386 -1.8321 -1.6977  1.0920
 2813SOL     OW 9879   0.827   1.629   0.213 -0.0789  0.4916  0.1494
 2813SOL    HW1 9880   0.857   1.601   0.127  1.2917  0.6842  0.5475
 2813SOL    HW2 9881   0.907   1.641   0.264 -0.6004  4.0367  0.3437
 2814SOL     OW 9882   1.629   2.470  10.318  0.4576  0.3328 -0.2574
 2814SOL    HW1 9883   1.552   2.498  10.367  1.3973  0.9501  0.8961
 2814SOL    HW2 9884   1.616   2.508  10.231 -0.0428  1.3319  0.2323
 2815SOL     OW 9885   0.937   3.174  11.268 -0.1711 -0.5475 -0.3275
 2815SOL    HW1 9886   0.852   3.162  11.225 -0.4300 -0.5693  0.1773
 2815SOL    HW2 9887   0.948   3.269  11.274 -0.2766 -0.5457 -0.1662
 2816SOL     OW 9888   0.234   3.459  12.351  0.0187  0.2839  0.3408
 2816SOL    HW1 9889   0.277   3.374  12.358 -0.0027  0.0582 -1.5854
 2816SOL    HW2 9890   0.265   3.495  12.268 -1.5979  1.1970  0.0771
 2817SOL     OW 9891   1.829   3.498   0.015  0.0046  0.4593 -0.0926
 2817SOL    HW1 9892   1.847   3.479  -0.077  0.4258 -0.1944  0.1132
 2817SOL    HW2 9893   1.878   3.578   0.034 -0.9913  1.2443 -0.7214
 2818SOL     OW 9894   2.514   3.276   0.645 -0.4236  0.4310 -0.2271
 2818SOL    HW1 9895   2.485   3.233   0.725 -0.8426 -1.2453 -1.2479
 2818SOL    HW2 9896   2.479   3.365   0.653 -2.0207 -0.2223  0.6271
 2819SOL     OW 9897   0.780   2.776  11.011  0.2513 -0.0186 -0.0641
 2819SOL    HW1 9898   0.699   2.825  11.028 -0.3461 -0.9119 -0.2417
 2819SOL    HW2 9899   0.843   2.812  11.073 -0.4346  0.3342  0.4481
 2820SOL     OW 9900   0.251   3.124  11.724 -0.4653  0.1003  0.1584
 2820SOL    HW1 9901   0.238   3.124  11.629 -0.8158  0.5990  0.1971
 2820SOL    HW2 9902   0.236   3.216  11.749 -0.7796 -0.1078  0.7435
 2821SOL     OW 9903   7.055   1.541  11.620 -0.1862 -0.1281  0.1525
 2821SOL    HW1 9904   7.034   1.491  11.541 -1.4606 -2.0318  1.5863
 2821SOL    HW2 9905   7.042   1.632  11.596 -1.5506 -0.7209 -1.5498
 2822SOL     OW 9906   2.076   4.641  11.571 -0.2284 -0.4654 -0.6670
 2822SOL    HW1 9907   2.130   4.562  11.576 -0.0973 -0.3163  0.4964
 2822SOL    HW2 9908   2.023   4.639  11.651  0.1553  0.8859 -0.3556
 2823SOL     OW 9909   3.617   4.898   1.051  0.2412 -0.4879 -0.0014
 2823SOL    HW1 9910   3.615   4.806   1.027 -1.6673 -1.0420  1.9793
 2823SOL    HW2 9911   3.626   4.945   0.968 -1.4372 -2.3664 -1.3350
 2824SOL     OW 9912   0.495   1.242  12.458  0.7370 -0.2913  0.1646
 2824SOL    HW1 9913   0.551   1.294  12.516  2.1017 -1.3180 -0.1858
 2824SOL    HW2 9914   0.483   1.160  12.505 -0.2231 -0.2172  0.0724
 2825SOL     OW 9915   0.816   3.488   1.154 -0.6309  0.1593  0.0027
 2825SOL    HW1 9916   0.833   3.441   1.072  0.8628  0.5818  0.0550
 2825SOL    HW2 9917   0.824   3.580   1.131  1.2112  0.2582  0.8868
 2826SOL     OW 9918   7.984   0.809   1.321  0.1377 -0.4664 -0.5660
 2826SOL    HW1 9919   8.006   0.731   1.372  0.3196  0.1075  0.2405
 2826SOL    HW2 9920   8.052   0.872   1.343 -1.7501  1.0327  1.2784
 2827SOL     OW 9921   0.866   2.434  11.283  0.0825  0.1939  0.2902
 2827SOL    HW1 9922   0.798   2.366  11.291 -0.4612  0.8512  1.5349
 2827SOL    HW2 9923   0.856   2.487  11.363  2.7728 -0.3411  1.0800
 2828SOL     OW 9924   7.819   3.800  11.643 -0.2431  0.3335  0.1590
 2828SOL    HW1 9925   7.881   3.728  11.632  0.9927  1.2407  0.8576
 2828SOL    HW2 9926   7.807   3.835  11.555 -0.0073 -0.0598 -0.0307
 2829SOL     OW 9927   0.271   2.046  12.393  0.1647  0.0171  0.0150
 2829SOL    HW1 9928   0.339   2.014  12.334 -0.0438  0.6371 -0.5607
 2829SOL    HW2 9929   0.222   1.967  12.418  1.3678 -0.5083  0.8105
 2830SOL     OW 9930   2.078   3.168  11.590 -0.0784 -0.0410 -0.4010
 2830SOL    HW1 9931   2.174   3.164  11.595 -0.0704 -0.2626 -0.6901
 2830SOL    HW2 9932   2.059   3.181  11.497 -0.3849 -2.4304 -0.7284
 2831SOL     OW 9933   0.323   2.415  11.295  0.3901  0.1278  0.4723
 2831SOL    HW1 9934   0.253   2.446  11.237  1.3756 -2.3577 -2.2874
 2831SOL    HW2 9935   0.398   2.469  11.273  0.2403  0.5839  1.0378
 2832SOL     OW 9936   7.998   3.329  11.816  0.3087  0.5751 -0.6036
 2832SOL    HW1 9937   7.957   3.258  11.866 -0.6280 -0.4715 -2.6988
 2832SOL    HW2 9938   8.081   3.345  11.861 -0.0758 -0.9118  0.7359
 2833SOL     OW 9939   0.910   0.254  12.104 -0.0958  0.4509  0.0159
 2833SOL    HW1 9940   0.984   0.314  12.096  0.5707 -0.2906  0.5157
 2833SOL    HW2 9941   0.855   0.294  12.171  1.3273 -0.4386  1.8009
 2834SOL     OW 9942   1.182   4.438  11.593 -0.0483  0.2182  0.4376
 2834SOL    HW1 9943   1.110   4.474  11.541  0.6409  0.0561 -0.6503
 2834SOL    HW2 9944   1.208   4.510  11.650  0.6873  1.1848 -1.0564
 2835SOL     OW 9945   1.196   1.108  11.550 -0.5336 -0.3020  0.5516
 2835SOL    HW1 9946   1.112   1.147  11.524 -0.5276  0.2828  1.3577
 2835SOL    HW2 9947   1.232   1.170  11.614 -0.2913 -1.3849  1.5035
 2836SOL     OW 9948   1.073   0.045  11.944  0.3829  0.4625 -0.7170
 2836SOL    HW1 9949   1.028   0.014  12.023 -0.6974  1.4932 -0.9110
 2836SOL    HW2 9950   1.153   0.086  11.977  1.3377 -1.5312 -0.3836
 2837SOL     OW 9951   0.194   1.072  12.199  0.5189  0.0520  0.4827
 2837SOL    HW1 9952   0.099   1.069  12.188  0.7119 -1.5740 -1.2875
 2837SOL    HW2 9953   0.221   1.152  12.156  0.1139 -0.5245 -0.9008
 2838SOL     OW 9954   1.620   2.000  11.606  0.3007  0.0898  0.4755
 2838SOL    HW1 9955   1.608   2.067  11.673  0.0542 -1.8203  2.4501
 2838SOL    HW2 9956   1.634   2.049  11.525  0.1045  2.4939  1.8140
 2839SOL     OW 9957   0.259   0.047  10.308 -0.1152 -0.2241 -0.5058
 2839SOL    HW1 9958   0.312   0.065  10.387 -0.1208 -0.6883 -0.3952
 2839SOL    HW2 9959   0.270   0.126  10.254 -1.1573  0.6570  0.5229
 2840SOL     OW 9960   1.849   1.157   1.929  0.0575  0.3046 -0.0725
 2840SOL    HW1 9961   1.854   1.061   1.927 -1.5933  0.1961 -0.8281
 2840SOL    HW2 9962   1.758   1.175   1.952  0.4866  1.7166  0.6134
 2841SOL     OW 9963   0.976   0.954   0.114  0.2320  0.9860 -0.5833
 2841SOL    HW1 9964   1.049   0.986   0.167 -0.3430 -0.2460  1.0278
 2841SOL    HW2 9965   1.011   0.879   0.066 -0.1733 -0.2395  0.9579
 2842SOL     OW 9966   0.670   1.884  12.497 -0.5763 -0.1933  0.1302
 2842SOL    HW1 9967   0.616   1.926  12.563  0.4342  1.5399 -0.1021
 2842SOL    HW2 9968   0.699   1.802  12.539 -2.3966 -0.6189  0.6585
 2843SOL     OW 9969   7.917   3.900  10.352  0.5541 -0.0924 -0.4184
 2843SOL    HW1 9970   7.877   3.983  10.379  0.3102  0.0513 -1.1990
 2843SOL    HW2 9971   7.847   3.835  10.361  0.4586 -0.0358 -0.7513
 2844SOL     OW 9972   7.887   5.044   0.944 -0.5231 -0.1458 -0.0639
 2844SOL    HW1 9973   7.929   5.130   0.950 -1.7495  0.4847 -0.1338
 2844SOL    HW2 9974   7.796   5.064   0.922 -0.3938 -1.5457 -2.0758
 2845SOL     OW 9975   3.628   4.167   1.889  0.2760 -0.3261  0.4746
 2845SOL    HW1 9976   3.670   4.146   1.972 -0.2446  0.9031  1.0705
 2845SOL    HW2 9977   3.612   4.262   1.893 -0.6490 -0.4110 -0.6119
 2846SOL     OW 9978   7.928   4.431   0.663 -0.2008  0.6739 -0.1217
 2846SOL    HW1 9979   7.869   4.392   0.728  0.3485  0.4690  0.2638
 2846SOL    HW2 9980   7.870   4.464   0.595 -0.6701 -1.3809 -0.7830
 2847SOL     OW 9981   7.653   4.472   1.342  0.2398 -0.5142  0.1610
 2847SOL    HW1 9982   7.729   4.530   1.355  0.3629 -0.4424 -0.8349
 2847SOL    HW2 9983   7.578   4.531   1.342  0.4302 -0.2083 -1.6914
 2848SOL     OW 9984   0.884   5.090  12.265 -0.1358 -0.2733  0.4807
 2848SOL    HW1 9985   0.926   5.004  12.273 -0.6849 -0.5395  0.5050
 2848SOL    HW2 9986   0.837   5.102  12.347 -2.7879 -1.4221 -0.7766
 2849SOL     OW 9987   1.976   5.605   0.921 -0.0227  0.1242  0.7670
 2849SOL    HW1 9988   2.035   5.538   0.955  0.8125  1.3849  1.8889
 2849SOL    HW2 9989   2.025   5.647   0.851 -0.6522 -0.5657 -0.1261
 2850SOL     OW 9990   1.805   4.668  12.483 -0.3489 -0.0716  0.1145
 2850SOL    HW1 9991   1.752   4.722  12.542 -0.3422 -0.1346  0.1776
 2850SOL    HW2 9992   1.861   4.731  12.438  1.1331 -0.2087  1.6722
 2851SOL     OW 9993   7.644   5.640   2.727 -0.1873  0.2279  0.4636
 2851SOL    HW1 9994   7.585   5.615   2.797 -0.5253 -0.1207  0.0556
 2851SOL    HW2 9995   7.592   5.631   2.647  0.8281 -1.4848 -0.0500
 2852SOL     OW 9996   7.743   2.296   2.394  0.2667 -0.2302  0.0471
 2852SOL    HW1 9997   7.684   2.246   2.339 -0.7703  0.4891  0.4774
 2852SOL    HW2 9998   7.702   2.383   2.402  0.2280 -0.3777  2.1271
 2853SOL     OW 9999   0.446   4.576   1.237  0.4926 -0.2621  0.0517
 2853SOL    HW110000   0.447   4.621   1.152  1.3016 -0.1220  0.1188
 2853SOL    HW210001   0.367   4.523   1.235  0.2589  0.0884 -0.6082
 2854SOL     OW10002   6.779   5.331   1.947  0.1405  0.7132 -0.1613
 2854SOL    HW110003   6.716   5.276   1.995  0.7106 -0.0831 -0.3003
 2854SOL    HW210004   6.831   5.373   2.016 -0.6415  1.5089 -0.0422
 2855SOL     OW10005   1.065   6.082   2.977 -0.1692 -0.5714  0.3184
 2855SOL    HW110006   1.072   6.034   3.059 -0.9418 -1.6245 -0.2033
 2855SOL    HW210007   1.004   6.030   2.924 -0.3032  0.5029 -0.6234
 2856SOL     OW10008   0.309   6.304   1.044 -0.1150 -0.0199  0.1222
 2856SOL    HW110009   0.350   6.275   0.962  2.2322  1.6569  0.6045
 2856SOL    HW210010   0.271   6.389   1.023  0.5146  0.4284  0.7505
 2857SOL     OW10011   7.084   4.740   2.309  0.2404 -0.5682 -0.1676
 2857SOL    HW110012   7.041   4.659   2.281  0.6230 -0.4713 -1.0878
 2857SOL    HW210013   7.058   4.804   2.242  1.9869 -0.5630 -0.8979
 2858SOL     OW10014   1.958   3.893   1.328 -0.1749 -0.6575 -0.0669
 2858SOL    HW110015   1.961   3.877   1.234 -0.2399 -0.5116 -0.0944
 2858SOL    HW210016   1.876   3.941   1.342  0.5749  0.7124 -0.1616
 2859SOL     OW10017   1.500   6.150   3.379 -0.3799  0.3540  0.5236
 2859SOL    HW110018   1.463   6.238   3.389 -1.0208  0.0693  0.7394
 2859SOL    HW210019   1.498   6.113   3.467  1.8794  0.8678  0.8527
 2860SOL     OW10020   0.821   5.934   0.090 -0.3453  0.6451 -0.7974
 2860SOL    HW110021   0.834   6.011   0.146  2.3961 -0.6067  0.4718
 2860SOL    HW210022   0.813   5.861   0.151  1.0766 -0.5618 -1.9926
 2861SOL     OW10023   0.447   5.363  12.121 -0.2734 -0.5114 -0.2479
 2861SOL    HW110024   0.356   5.370  12.149 -0.4836  1.1000 -1.2538
 2861SOL    HW210025   0.443   5.332  12.031 -0.1180  3.3101 -1.7495
 2862SOL     OW10026   6.546   5.712   0.844  0.2888 -0.3192  0.1802
 2862SOL    HW110027   6.581   5.741   0.760  0.8106  2.7933  1.3119
 2862SOL    HW210028   6.551   5.617   0.842  1.8561 -0.2656 -2.6161
 2863SOL     OW10029   7.346   6.302   0.815  0.4717 -0.3480  0.2505
 2863SOL    HW110030   7.336   6.398   0.817 -0.2326 -0.3965 -0.3756
 2863SOL    HW210031   7.437   6.287   0.838  0.5206  0.4662  0.6326
 2864SOL     OW10032   2.785   4.425   0.790 -0.0346  0.2115  0.6044
 2864SOL    HW110033   2.823   4.509   0.814 -0.1783 -0.1923  2.4080
 2864SOL    HW210034   2.691   4.436   0.808  0.0015 -0.4404  1.2256
 2865SOL     OW10035   3.300   3.640   0.484 -0.7275  0.0908  0.0077
 2865SOL    HW110036   3.289   3.601   0.571 -0.2994  0.8618  0.4226
 2865SOL    HW210037   3.325   3.566   0.428  1.2887 -0.0772  1.0186
 2866SOL     OW10038   0.656   3.891  12.129 -0.3769 -0.0763  0.0799
 2866SOL    HW110039   0.667   3.816  12.070 -1.3554 -0.0612 -0.1367
 2866SOL    HW210040   0.740   3.898  12.174  0.4506 -0.0028 -1.4082
 2867SOL     OW10041   1.382   5.316  12.342 -0.6670  0.1444 -0.0790
 2867SOL    HW110042   1.346   5.299  12.255 -0.0082 -0.5042 -0.2423
 2867SOL    HW210043   1.310   5.353  12.392 -0.9874  0.7587 -0.9738
 2868SOL     OW10044   0.558   4.465  11.669  0.3337  0.1245  0.5674
 2868SOL    HW110045   0.518   4.482  11.755  1.4813 -0.3278  1.2156
 2868SOL    HW210046   0.525   4.378  11.645  2.2344 -1.0701  1.9505
 2869SOL     OW10047   4.099   2.949   1.107 -0.1991  0.6159 -0.3715
 2869SOL    HW110048   4.010   2.983   1.118 -0.1224  0.0080  3.2672
 2869SOL    HW210049   4.087   2.861   1.074 -0.8138  1.1503 -1.6401
 2870SOL     OW10050   2.340   4.920   1.345  0.0262  0.5148 -0.1756
 2870SOL    HW110051   2.307   4.865   1.274  1.2509 -0.5927  0.0641
 2870SOL    HW210052   2.262   4.962   1.381 -0.7468  0.2015 -1.4322
 2871SOL     OW10053   0.402   4.558   2.065  0.3234  0.7017  0.1211
 2871SOL    HW110054   0.408   4.605   1.982  1.1488  0.7862  0.2151
 2871SOL    HW210055   0.492   4.534   2.085  0.1523  0.7875  1.0545
 2872SOL     OW10056   1.989   5.504   1.418 -0.4654 -0.5984  0.1802
 2872SOL    HW110057   1.942   5.578   1.379 -1.0165  0.4925  2.7310
 2872SOL    HW210058   2.071   5.542   1.451  0.0071 -1.4979  0.0798
 2873SOL     OW10059   2.607   4.959   1.969  0.1917 -0.1488 -0.0392
 2873SOL    HW110060   2.569   4.912   1.895 -0.6775 -0.1857  0.4084
 2873SOL    HW210061   2.567   4.918   2.046  0.6582  0.2561  0.4271
 2874SOL     OW10062   1.853   4.479  11.462  0.0827 -0.5386  0.3176
 2874SOL    HW110063   1.894   4.394  11.480 -1.8773 -1.9288 -1.3150
 2874SOL    HW210064   1.927   4.540  11.454  1.5262 -1.9325  2.0203
 2875SOL     OW10065   1.600   4.660   2.268  0.0968 -0.3393  0.2403
 2875SOL    HW110066   1.572   4.613   2.189  1.7479  0.2121 -0.7367
 2875SOL    HW210067   1.534   4.728   2.280 -0.6731 -1.0069 -0.1094
 2876SOL     OW10068   3.652   4.475   0.091 -0.6863 -0.7710  0.1993
 2876SOL    HW110069   3.568   4.436   0.117 -0.5518 -2.0344 -1.1385
 2876SOL    HW210070   3.716   4.436   0.152 -1.0367  0.2451  1.2634
 2877SOL     OW10071   3.309   5.300  12.384 -0.0196  0.5306  0.0221
 2877SOL    HW110072   3.386   5.289  12.328 -0.4096 -0.0114 -0.4187
 2877SOL    HW210073   3.239   5.327  12.325 -0.2967  0.5046  0.3320
 2878SOL     OW10074   6.970   2.915   1.491 -0.0592 -0.3266 -0.0944
 2878SOL    HW110075   7.003   2.851   1.554 -0.4601 -0.6466 -0.2013
 2878SOL    HW210076   6.992   3.000   1.528  0.1216 -0.5220  0.2473
 2879SOL     OW10077   0.638   4.545   2.202 -0.4793 -0.1273  0.0546
 2879SOL    HW110078   0.711   4.485   2.188 -1.1628 -0.7983 -0.7322
 2879SOL    HW210079   0.584   4.501   2.268 -0.9544 -0.3765 -0.4864
 2880SOL     OW10080   2.191   5.712   1.194  0.2074 -0.6068  0.2791
 2880SOL    HW110081   2.099   5.734   1.211  0.0244 -0.2641 -0.9834
 2880SOL    HW210082   2.239   5.789   1.224 -0.0945 -0.0315 -0.6677
 2881SOL     OW10083   1.222   4.724   0.498 -0.0375 -0.6808  0.3679
 2881SOL    HW110084   1.232   4.634   0.468 -0.7503 -1.0135  1.0886
 2881SOL    HW210085   1.276   4.730   0.577 -1.2690 -0.9773  1.2694
 2882SOL     OW10086   1.437   3.425   2.435  0.6047 -0.0123  0.3934
 2882SOL    HW110087   1.394   3.510   2.424  1.3976  0.2949 -0.5686
 2882SOL    HW210088   1.496   3.419   2.360  1.4042 -0.9083  1.0691
 2883SOL     OW10089   2.910   5.155   0.239  0.3700 -0.4011  0.1763
 2883SOL    HW110090   2.941   5.069   0.266  2.5552  0.4759  0.6464
 2883SOL    HW210091   2.969   5.181   0.168 -0.8358  0.3408 -0.5908
 2884SOL     OW10092   0.528   3.449   1.200  0.3263 -0.0605 -0.1957
 2884SOL    HW110093   0.477   3.499   1.263 -2.9439 -1.6103 -1.4054
 2884SOL    HW210094   0.619   3.461   1.228 -0.7276  1.7817  2.9066
 2885SOL     OW10095   1.978   5.202   2.313  0.4287  0.1687  0.3140
 2885SOL    HW110096   1.908   5.183   2.375  2.0968 -0.9725  1.9294
 2885SOL    HW210097   2.052   5.149   2.342  2.8921  3.3203  0.3932
 2886SOL     OW10098   2.023   3.123   1.664  0.4565 -0.2488  0.1224
 2886SOL    HW110099   2.017   3.141   1.570  0.2902  1.5689  0.4295
 2886SOL    HW210100   1.954   3.178   1.703 -0.2222 -1.8195  1.2248
 2887SOL     OW10101   0.953   2.751   1.764 -0.0643  0.4121 -0.4310
 2887SOL    HW110102   0.961   2.844   1.785 -1.9988  0.6370 -0.5222
 2887SOL    HW210103   0.931   2.749   1.671 -0.8306 -0.0786 -0.2505
 2888SOL     OW10104   1.470   3.780   0.214  0.6774 -0.0575  0.1043
 2888SOL    HW110105   1.446   3.805   0.304  1.2532  1.0911 -0.0359
 2888SOL    HW210106   1.566   3.778   0.215  0.7155  0.7668 -0.6748
 2889SOL     OW10107   6.764   2.269   0.451 -0.4691  0.0363 -0.2535
 2889SOL    HW110108   6.792   2.343   0.505 -0.4761 -0.9728  1.2226
 2889SOL    HW210109   6.682   2.297   0.411 -1.2870  0.3031  1.5158
 2890SOL     OW10110   0.042   0.064   3.441 -0.2208 -0.2395 -0.3756
 2890SOL    HW110111  -0.020   0.130   3.409 -0.0911 -0.6702 -1.5287
 2890SOL    HW210112  -0.009   0.012   3.503 -0.5283  0.4572 -0.0219
 2891SOL     OW10113   7.306   6.072  11.755 -0.4736  0.5076 -0.0592
 2891SOL    HW110114   7.330   5.985  11.786 -0.6136 -0.6410 -2.8531
 2891SOL    HW210115   7.231   6.097  11.808 -1.1665 -1.6024  0.0496
 2892SOL     OW10116   2.233   4.289   1.714  0.2388 -0.2592  0.1154
 2892SOL    HW110117   2.245   4.380   1.744 -1.7330 -0.7839  2.8806
 2892SOL    HW210118   2.271   4.236   1.784  0.5895 -1.6314 -1.0637
 2893SOL     OW10119   1.329   4.487   0.795  0.5884 -0.0960 -0.0610
 2893SOL    HW110120   1.274   4.460   0.721 -1.0017  0.1378  0.9874
 2893SOL    HW210121   1.271   4.539   0.850  0.8195 -2.5346  2.7640
 2894SOL     OW10122   7.748   4.236   1.286 -0.1073 -0.1495 -0.1212
 2894SOL    HW110123   7.709   4.323   1.293 -0.6201 -0.4997  2.5390
 2894SOL    HW210124   7.840   4.249   1.307  0.1103 -0.1054 -1.0359
 2895SOL     OW10125   3.075   5.367   0.549  0.1281 -0.2385  0.0968
 2895SOL    HW110126   3.006   5.419   0.590 -0.5175 -1.3188  0.4251
 2895SOL    HW210127   3.084   5.290   0.606  1.1263 -0.4408 -0.3160
 2896SOL     OW10128   2.586   6.412   0.853 -0.0640 -0.1915  0.3573
 2896SOL    HW110129   2.598   6.420   0.948  1.2867  1.9717  0.0651
 2896SOL    HW210130   2.637   6.334   0.830  3.2319  1.6155  0.9380
 2897SOL     OW10131   1.544   4.115  12.252 -0.1364 -0.2889  0.2366
 2897SOL    HW110132   1.560   4.069  12.335 -0.4804  1.4404  1.3131
 2897SOL    HW210133   1.631   4.140  12.222 -0.1261  1.0081  1.2612
 2898SOL     OW10134   1.827   5.432   3.067 -0.2438  0.2351  0.0456
 2898SOL    HW110135   1.885   5.468   3.133  0.8363  1.0363 -1.2763
 2898SOL    HW210136   1.743   5.420   3.112  0.8909 -0.9264  1.9924
 2899SOL     OW10137   7.308   5.788  11.776  0.4432  0.2458  0.0921
 2899SOL    HW110138   7.255   5.708  11.774  1.2352 -0.2818 -0.3353
 2899SOL    HW210139   7.363   5.778  11.854  1.1619 -0.0505 -0.4389
 2900SOL     OW10140   1.213   4.972   1.754 -0.0972 -0.0063 -0.1543
 2900SOL    HW110141   1.214   5.045   1.693  0.0401  0.8002  0.7886
 2900SOL    HW210142   1.259   4.902   1.708 -0.7038  0.3026 -1.2846
 2901SOL     OW10143   0.796   4.670   0.230  0.7841 -0.4374 -0.1193
 2901SOL    HW110144   0.874   4.649   0.179  1.2058 -1.1422  0.7913
 2901SOL    HW210145   0.804   4.617   0.309 -0.1589  0.1724  0.4037
 2902SOL     OW10146   6.993   5.510   0.410 -0.3118 -0.6756  0.2298
 2902SOL    HW110147   6.941   5.561   0.348 -0.5984 -0.4299  0.6702
 2902SOL    HW210148   6.980   5.554   0.495  0.0222 -1.0467  0.4773
 2903SOL     OW10149   6.350   2.689   0.703  0.5423 -0.2787  0.1555
 2903SOL    HW110150   6.257   2.704   0.689  0.2984  0.2174  2.0640
 2903SOL    HW210151   6.390   2.776   0.702  0.5826 -0.2432  1.7130
 2904SOL     OW10152   1.496   5.112   1.763 -0.1842  0.1280  0.0963
 2904SOL    HW110153   1.465   5.170   1.693  0.0592  0.1037 -0.0319
 2904SOL    HW210154   1.579   5.077   1.730  0.1018  0.3786  0.5474
 2905SOL     OW10155   0.670   4.842   1.675  0.4248 -0.1215  0.0216
 2905SOL    HW110156   0.628   4.834   1.590 -1.2573  0.2532  0.7792
 2905SOL    HW210157   0.738   4.775   1.675 -0.0605 -0.6314 -1.3210
 2906SOL     OW10158   0.671   4.347   1.516 -0.3044 -0.1455  0.4113
 2906SOL    HW110159   0.691   4.427   1.564  1.5984  0.2750 -0.9691
 2906SOL    HW210160   0.732   4.347   1.442 -0.9982 -2.3251 -0.2490
 2907SOL     OW10161   0.505   5.785   0.489  0.2509 -0.0225 -0.1193
 2907SOL    HW110162   0.584   5.834   0.510  1.6647 -1.8290 -0.9676
 2907SOL    HW210163   0.463   5.835   0.420 -0.1880  1.7419  1.3583
 2908SOL     OW10164   1.572   4.375   0.919  0.1580 -0.3634 -0.0326
 2908SOL    HW110165   1.501   4.439   0.912  0.8083  0.2566 -1.2029
 2908SOL    HW210166   1.637   4.417   0.976 -0.2875 -0.8422  0.8600
 2909SOL     OW10167   0.786   4.330   0.882  0.1434  0.0393  0.4031
 2909SOL    HW110168   0.792   4.263   0.951  1.6814  1.5537  1.8477
 2909SOL    HW210169   0.875   4.336   0.847 -0.6259 -0.7364 -1.8360
 2910SOL     OW10170   1.136   4.167   1.637  0.1019 -0.1905 -0.0561
 2910SOL    HW110171   1.227   4.185   1.658 -0.0504  0.3395  0.1688
 2910SOL    HW210172   1.086   4.227   1.692 -0.3952 -0.7380  0.0951
 2911SOL     OW10173   0.690   3.287   0.595 -0.1254 -0.3481  0.4444
 2911SOL    HW110174   0.785   3.291   0.605 -0.2196  0.3701  1.1727
 2911SOL    HW210175   0.658   3.358   0.650 -1.1789 -1.5537  1.4456
 2912SOL     OW10176   0.704   2.839   3.156 -0.5830 -0.1033 -0.1206
 2912SOL    HW110177   0.767   2.789   3.207 -0.8035 -1.5808 -1.2171
 2912SOL    HW210178   0.686   2.917   3.208  0.9130 -0.4442  0.9546
 2913SOL     OW10179   0.533   5.342   1.876 -0.2427 -0.0788 -0.2832
 2913SOL    HW110180   0.519   5.252   1.844 -0.9376 -0.5648  1.3092
 2913SOL    HW210181   0.618   5.339   1.919  0.8918  0.6837 -2.3500
 2914SOL     OW10182   0.273   6.512   0.384  0.3888 -0.6590 -0.1590
 2914SOL    HW110183   0.283   6.607   0.398  1.4182 -0.7947  0.0971
 2914SOL    HW210184   0.250   6.478   0.470  0.7101 -0.7299 -0.1014
 2915SOL     OW10185   1.452   3.283   1.697 -0.8680  0.2144  0.6065
 2915SOL    HW110186   1.386   3.312   1.633  0.3229 -0.1265 -0.8444
 2915SOL    HW210187   1.505   3.361   1.714 -0.9643  0.2143  0.9143
 2916SOL     OW10188   2.115   4.251   1.426  0.0746 -0.3603 -0.5675
 2916SOL    HW110189   2.020   4.244   1.428 -0.0106  0.7957  0.2947
 2916SOL    HW210190   2.141   4.251   1.519  0.8237  0.4351 -0.7702
 2917SOL     OW10191   2.488   4.213  10.386 -0.6297 -0.2167  0.0404
 2917SOL    HW110192   2.406   4.234  10.430 -2.0503  0.5814 -2.7485
 2917SOL    HW210193   2.471   4.129  10.344  0.8713 -1.2247  1.3043
 2918SOL     OW10194   1.013   4.176   0.394 -0.0325 -0.1794 -0.2165
 2918SOL    HW110195   0.961   4.215   0.324  2.4806  0.0935 -2.1024
 2918SOL    HW210196   1.040   4.250   0.449  0.8922  0.1468 -1.0778
 2919SOL     OW10197   1.941   3.804   1.036 -0.9923  0.5841  0.1115
 2919SOL    HW110198   1.904   3.877   0.987 -0.6718  0.5361 -0.2033
 2919SOL    HW210199   1.991   3.754   0.972 -1.5360 -0.1422  0.2302
 2920SOL     OW10200   7.549   3.216   3.475  0.0154 -0.0132  0.6608
 2920SOL    HW110201   7.644   3.223   3.487 -0.1609  2.8808  0.9936
 2920SOL    HW210202   7.529   3.281   3.408 -1.6496 -1.3035 -0.1602
 2921SOL     OW10203   1.861   4.755   1.927  0.9696  0.3036 -0.4870
 2921SOL    HW110204   1.850   4.817   2.000 -1.5441  0.5544 -0.9654
 2921SOL    HW210205   1.787   4.695   1.936  0.6962  0.2232 -2.6864
 2922SOL     OW10206   1.557   4.823  11.786 -0.3559 -0.4190 -0.0200
 2922SOL    HW110207   1.548   4.901  11.841  0.5976 -0.2122 -0.1471
 2922SOL    HW210208   1.650   4.819  11.764 -0.4061 -1.5516 -0.0833
 2923SOL     OW10209   3.621   4.406  11.498 -0.3271 -0.6491 -0.2245
 2923SOL    HW110210   3.555   4.470  11.471  1.0376  1.1828  0.5358
 2923SOL    HW210211   3.592   4.375  11.584  0.3137  1.0113  0.6362
 2924SOL     OW10212   1.330   3.592   3.035 -0.3511 -0.0101  0.3240
 2924SOL    HW110213   1.371   3.519   3.082 -2.0521 -0.6302  0.9038
 2924SOL    HW210214   1.322   3.561   2.945 -1.8292 -0.9135  0.7373
 2925SOL     OW10215   7.582   5.046   0.327 -0.4464 -0.5072  0.0597
 2925SOL    HW110216   7.517   4.983   0.359 -1.2665 -0.0424 -0.6395
 2925SOL    HW210217   7.583   5.033   0.232 -0.7648  0.6453 -0.1162
 2926SOL     OW10218   2.749   2.780   0.385  0.1831 -0.0267 -0.3133
 2926SOL    HW110219   2.842   2.762   0.395 -0.0751 -1.9686 -0.7884
 2926SOL    HW210220   2.741   2.818   0.297  0.3588 -1.7475 -1.1155
 2927SOL     OW10221   1.889   5.741   1.274  0.1606 -0.3103  0.0350
 2927SOL    HW110222   1.829   5.707   1.207  0.5949  0.0768 -0.5544
 2927SOL    HW210223   1.871   5.835   1.276  0.0192 -0.3432  0.6041
 2928SOL     OW10224   1.120   4.464   1.085 -0.3255 -0.2693 -0.3330
 2928SOL    HW110225   1.117   4.429   1.174 -0.8539  0.4256 -0.0766
 2928SOL    HW210226   1.147   4.389   1.031  1.5431 -0.3413  0.5933
 2929SOL     OW10227   0.971   5.756   1.581 -0.2602  0.3758 -0.2435
 2929SOL    HW110228   0.968   5.759   1.485  2.0723  0.4009 -0.3527
 2929SOL    HW210229   0.999   5.667   1.601 -0.7286  0.3756  0.4474
 2930SOL     OW10230   2.165   5.694   1.514  0.0614  0.1292  0.1870
 2930SOL    HW110231   2.148   5.765   1.452  0.9119  0.2796  0.1108
 2930SOL    HW210232   2.245   5.721   1.559 -0.3079 -0.1898  1.0472
 2931SOL     OW10233   2.969   1.670   1.032  0.4625 -0.1877  0.0645
 2931SOL    HW110234   2.999   1.596   1.085 -0.3171 -1.0293 -0.6194
 2931SOL    HW210235   2.979   1.746   1.088  1.5322 -0.7752  0.7060
 2932SOL     OW10236   1.339   4.095   0.430  0.0989 -0.1296 -0.0234
 2932SOL    HW110237   1.300   4.105   0.343 -0.2690  1.0945  0.2693
 2932SOL    HW210238   1.305   4.011   0.462  0.1666 -0.5465 -1.0155
 2933SOL     OW10239   2.775   5.785   1.079  0.0115 -0.5027  0.2961
 2933SOL    HW110240   2.686   5.755   1.098  0.1919 -2.6157 -1.6402
 2933SOL    HW210241   2.831   5.714   1.111  0.7992 -0.3131 -0.6187
 2934SOL     OW10242   7.091   4.292  10.863 -0.7121  0.0657  0.3888
 2934SOL    HW110243   7.172   4.286  10.813 -0.9681  0.0438 -0.0256
 2934SOL    HW210244   7.118   4.331  10.947 -0.3762  0.6629  0.0170
 2935SOL     OW10245   7.950   3.871  11.070  0.0477 -0.2792 -0.3202
 2935SOL    HW110246   8.028   3.924  11.087 -0.7349  0.5470  0.8642
 2935SOL    HW210247   7.909   3.913  10.993  1.0840 -1.1190 -1.3656
 2936SOL     OW10248   2.134   4.460   1.226 -0.0179 -0.3753  0.3298
 2936SOL    HW110249   2.104   4.380   1.270  0.6009 -0.3726  0.7643
 2936SOL    HW210250   2.119   4.443   1.133  0.2774 -1.0697  0.4030
 2937SOL     OW10251   2.606   5.263   1.564 -0.0146 -0.0304 -0.2898
 2937SOL    HW110252   2.619   5.334   1.627 -0.5131  0.0707 -0.3003
 2937SOL    HW210253   2.516   5.235   1.577  1.1102 -3.1490  2.2750
 2938SOL     OW10254   2.047   6.051   3.446 -0.4746  0.2175  0.0857
 2938SOL    HW110255   2.107   6.046   3.520  0.0886 -0.2068 -0.3885
 2938SOL    HW210256   1.960   6.052   3.486 -0.1614  1.9620  0.8324
 2939SOL     OW10257   0.511   6.239   2.122 -0.1788  0.2185 -0.6068
 2939SOL    HW110258   0.570   6.287   2.064 -1.8868 -0.4334 -3.0473
 2939SOL    HW210259   0.568   6.202   2.190  1.7418  2.0934 -1.1114
 2940SOL     OW10260   0.842   2.723   1.492  0.0080  0.2594 -0.5427
 2940SOL    HW110261   0.763   2.677   1.463 -0.4137  1.2301 -0.9792
 2940SOL    HW210262   0.826   2.815   1.470  0.3924  0.7984  1.2526
 2941SOL     OW10263   1.335   3.740   1.393  0.1405 -0.0791 -0.1947
 2941SOL    HW110264   1.269   3.748   1.462 -1.4604 -3.3383 -1.1838
 2941SOL    HW210265   1.363   3.830   1.377 -1.0198  1.0422  3.1085
 2942SOL     OW10266   0.559   3.486   2.482  0.4423  0.4459 -0.2595
 2942SOL    HW110267   0.654   3.492   2.473  0.5609 -0.5474  0.2501
 2942SOL    HW210268   0.542   3.515   2.572  0.3505 -0.1595 -0.0788
 2943SOL     OW10269   6.490   4.534  10.973 -0.2482  0.4144 -0.5225
 2943SOL    HW110270   6.580   4.543  11.005 -0.5163  1.8604 -0.0986
 2943SOL    HW210271   6.498   4.516  10.880  0.4906 -0.7103 -0.2606
 2944SOL     OW10272   0.796   4.475  11.803 -0.6233 -0.1466 -0.7637
 2944SOL    HW110273   0.724   4.454  11.744 -0.2551  2.0770 -2.1061
 2944SOL    HW210274   0.815   4.567  11.786  1.4812 -0.2390  0.7318
 2945SOL     OW10275   1.402   4.008   2.720 -0.2081 -0.3881 -0.1823
 2945SOL    HW110276   1.378   4.097   2.746  2.4850  0.3872 -0.1103
 2945SOL    HW210277   1.456   4.019   2.641 -1.2936 -2.1230 -1.2503
 2946SOL     OW10278   7.472   4.706   2.460 -0.2711 -0.6016 -0.0348
 2946SOL    HW110279   7.534   4.741   2.524  1.2184 -3.6989  0.3980
 2946SOL    HW210280   7.409   4.656   2.513 -0.5537 -1.0857 -0.8140
 2947SOL     OW10281   7.174   7.215   1.158  0.5330  0.1540 -0.2406
 2947SOL    HW110282   7.230   7.195   1.083 -0.9300  0.0650 -1.3444
 2947SOL    HW210283   7.156   7.309   1.150  3.3768  1.0949  2.1702
 2948SOL     OW10284   1.695   3.359   1.459  0.5721 -0.7600 -0.1323
 2948SOL    HW110285   1.626   3.293   1.460 -1.9546  1.6987 -0.6459
 2948SOL    HW210286   1.703   3.388   1.550 -0.0395 -0.1426 -0.2675
 2949SOL     OW10287   2.210   4.051  11.919  0.0363  0.4183 -0.1763
 2949SOL    HW110288   2.219   4.037  11.825  1.0793  1.8803 -0.3125
 2949SOL    HW210289   2.181   4.141  11.928 -0.6561  0.1084  0.8981
 2950SOL     OW10290   1.460   6.239   0.968  0.0522 -0.3177  0.2583
 2950SOL    HW110291   1.536   6.278   1.010  0.0253  1.9375 -1.6072
 2950SOL    HW210292   1.415   6.192   1.038  1.9029  0.2379  1.8887
 2951SOL     OW10293   2.488   3.754   0.511  0.2868 -0.2197  0.0073
 2951SOL    HW110294   2.424   3.818   0.540 -1.3211 -2.0558  0.7095
 2951SOL    HW210295   2.560   3.806   0.475  0.1015  2.0194  2.6204
 2952SOL     OW10296   7.412   7.694   2.171  0.2019 -0.1562  0.2318
 2952SOL    HW110297   7.430   7.610   2.213 -0.2035  0.0552  0.8348
 2952SOL    HW210298   7.416   7.758   2.242 -2.9617 -0.0987  0.4691
 2953SOL     OW10299   1.157   6.732   1.887  0.1719 -0.1154  0.0390
 2953SOL    HW110300   1.135   6.642   1.863  0.9977 -0.9042  2.0001
 2953SOL    HW210301   1.073   6.772   1.909 -0.1821 -0.4754 -0.6326
 2954SOL     OW10302   0.858   3.761   1.921 -0.0937  0.4110 -0.0195
 2954SOL    HW110303   0.880   3.854   1.922  1.6180  0.0653  1.8742
 2954SOL    HW210304   0.780   3.754   1.975  1.6444  0.4682  2.7049
 2955SOL     OW10305   0.622   1.708   2.389  0.6468  0.8261  0.0268
 2955SOL    HW110306   0.681   1.697   2.464  1.1800 -2.8664 -0.7421
 2955SOL    HW210307   0.681   1.706   2.313 -0.2398 -0.8091 -0.6580
 2956SOL     OW10308   1.478   2.614   1.867  0.0806 -0.1092  0.6027
 2956SOL    HW110309   1.469   2.653   1.780 -1.0329  0.3795  0.9161
 2956SOL    HW210310   1.397   2.637   1.912 -0.2181 -1.9764  1.1241
 2957SOL     OW10311   0.794   5.460   1.648 -0.4044 -0.1982  0.0477
 2957SOL    HW110312   0.729   5.488   1.713  0.0951  1.3275 -0.0791
 2957SOL    HW210313   0.746   5.459   1.565 -0.4501  0.2449  0.0650
 2958SOL     OW10314   2.681   2.680   1.086  0.6219  0.1679 -0.4949
 2958SOL    HW110315   2.775   2.664   1.078  0.8847  0.9436  0.6885
 2958SOL    HW210316   2.643   2.645   1.005  1.8685 -0.5458 -0.7952
 2959SOL     OW10317   0.975   3.240   0.621 -0.3928  0.1438 -0.1599
 2959SOL    HW110318   1.020   3.169   0.575 -2.7433 -1.0558 -0.7686
 2959SOL    HW210319   1.023   3.319   0.596  0.9400 -0.9622 -1.2738
 2960SOL     OW10320   0.405   5.807   1.185 -0.0768  0.0893 -0.5753
 2960SOL    HW110321   0.427   5.749   1.112 -0.1256 -0.7162  0.0391
 2960SOL    HW210322   0.457   5.886   1.169 -0.7374  0.2711 -1.9291
 2961SOL     OW10323   2.096   5.794   1.877  0.2250  0.1203 -0.3271
 2961SOL    HW110324   2.058   5.720   1.925 -0.8094  0.1216 -1.1019
 2961SOL    HW210325   2.021   5.846   1.849  0.8602  0.7066 -1.0000
 2962SOL     OW10326   0.659   4.569  12.039 -0.6516 -0.2761 -0.4960
 2962SOL    HW110327   0.702   4.510  11.977 -3.8796 -0.6845 -2.5916
 2962SOL    HW210328   0.639   4.513  12.114  0.8194 -0.5137 -0.2638
 2963SOL     OW10329   1.666   4.996   2.528 -0.6105 -0.4064 -0.2168
 2963SOL    HW110330   1.683   4.941   2.604 -0.8750  1.5140  1.2906
 2963SOL    HW210331   1.594   4.953   2.482  0.0252 -1.9659  0.1931
 2964SOL     OW10332   0.362   3.659   0.044 -0.1338 -0.2674 -0.1126
 2964SOL    HW110333   0.334   3.748   0.065 -3.3287 -1.8283  3.6419
 2964SOL    HW210334   0.301   3.629  -0.023  1.4700  0.4972 -2.0026
 2965SOL     OW10335   2.388   4.585  11.853  0.0667 -0.3849 -0.0651
 2965SOL    HW110336   2.404   4.567  11.946 -1.5904 -0.5629  0.2146
 2965SOL    HW210337   2.378   4.498  11.814 -0.8836 -0.2763 -0.0805
 2966SOL     OW10338   1.617   4.502   1.797 -0.0822 -1.4269 -0.2950
 2966SOL    HW110339   1.585   4.513   1.887 -3.3127 -1.0160 -1.3556
 2966SOL    HW210340   1.694   4.447   1.805 -0.1077 -1.1711  2.7472
 2967SOL     OW10341   1.844   4.890   0.480  0.1416  0.3349 -0.0893
 2967SOL    HW110342   1.858   4.940   0.399 -0.9317 -0.8091 -1.0148
 2967SOL    HW210343   1.932   4.867   0.509  0.5487  0.6261 -1.0261
 2968SOL     OW10344   0.293   6.153   1.900  0.0484  0.2052  0.7079
 2968SOL    HW110345   0.375   6.140   1.948 -0.3629 -0.8040  1.1603
 2968SOL    HW210346   0.228   6.172   1.968 -0.5330 -1.1988  0.5859
 2969SOL     OW10347   2.277   4.052  11.657 -0.1799  0.0227  0.1191
 2969SOL    HW110348   2.325   3.972  11.636 -1.5731 -0.9023  0.3564
 2969SOL    HW210349   2.300   4.113  11.588  1.2741 -0.4112  0.1927
 2970SOL     OW10350   1.826   5.356  10.792  0.6277 -0.3273 -0.3196
 2970SOL    HW110351   1.917   5.383  10.807  0.0441  0.0958  3.4716
 2970SOL    HW210352   1.803   5.305  10.869 -3.1598  2.0093  0.3808
 2971SOL     OW10353   2.619   5.654   2.862  0.2793 -0.1434  0.2671
 2971SOL    HW110354   2.648   5.739   2.828 -0.2682  0.0727  0.3291
 2971SOL    HW210355   2.682   5.634   2.931  0.1422  0.4421  0.5739
 2972SOL     OW10356   7.463   4.545  11.674 -0.2851  0.0520 -0.6319
 2972SOL    HW110357   7.537   4.496  11.638 -0.6310  0.2762 -1.6618
 2972SOL    HW210358   7.501   4.630  11.698 -0.1978  0.1591 -1.1373
 2973SOL     OW10359   0.379   4.018  11.826  0.0179 -0.3044 -0.1579
 2973SOL    HW110360   0.292   4.025  11.863 -0.9131 -3.0862 -1.5748
 2973SOL    HW210361   0.428   3.963  11.887  0.3500  0.0614 -0.0868
 2974SOL     OW10362   1.661   4.127   1.487  0.1211 -0.8023 -0.1668
 2974SOL    HW110363   1.681   4.085   1.404  0.2594 -0.6232 -0.2255
 2974SOL    HW210364   1.704   4.072   1.553 -1.0339 -1.6514 -0.0965
 2975SOL     OW10365   1.181   3.753   1.618 -0.0337 -0.2867  0.2977
 2975SOL    HW110366   1.117   3.702   1.667  0.0402 -0.1680  0.5193
 2975SOL    HW210367   1.254   3.765   1.679  0.3742 -0.7688 -0.0862
 2976SOL     OW10368   7.748   4.741   0.030  0.3639  0.1510  0.2647
 2976SOL    HW110369   7.705   4.818  -0.007  1.0089  0.3850 -0.0122
 2976SOL    HW210370   7.842   4.757   0.017  0.6482  0.4562  2.4206
 2977SOL     OW10371   7.461   4.663   1.399 -0.3217  0.0723  0.0423
 2977SOL    HW110372   7.398   4.733   1.418  0.2202  0.2868  1.1841
 2977SOL    HW210373   7.537   4.685   1.453  1.4105  0.7081 -2.5238
 2978SOL     OW10374   1.464   5.345   1.588 -0.9248  0.1573  0.1064
 2978SOL    HW110375   1.464   5.404   1.664  0.4085 -1.2360  1.2575
 2978SOL    HW210376   1.525   5.386   1.527 -0.3911  0.2535  0.6887
 2979SOL     OW10377   3.851   3.642   2.267  0.4137 -0.1697 -0.5568
 2979SOL    HW110378   3.895   3.661   2.184  0.3282 -0.7148 -0.7286
 2979SOL    HW210379   3.898   3.567   2.303 -0.6638 -1.0764 -0.9749
 2980SOL     OW10380   1.197   4.372   0.259  0.0903  0.7184 -0.4447
 2980SOL    HW110381   1.185   4.375   0.354  1.3724 -1.0778 -0.1568
 2980SOL    HW210382   1.155   4.290   0.232 -1.4127  1.8320 -1.6694
 2981SOL     OW10383   7.855   4.651   1.388 -0.1672  0.1894 -0.1362
 2981SOL    HW110384   7.945   4.632   1.414 -0.3775 -1.6986 -0.6146
 2981SOL    HW210385   7.862   4.723   1.325  1.0574 -0.2539 -0.5173
 2982SOL     OW10386   3.100   5.541   0.080  0.6538  0.2396 -0.3812
 2982SOL    HW110387   3.131   5.450   0.081  0.2928  0.1030 -0.9998
 2982SOL    HW210388   3.091   5.564   0.172 -1.7571 -1.2364 -0.1687
 2983SOL     OW10389   0.002   2.747  12.481 -0.6551 -0.4131 -0.3174
 2983SOL    HW110390   0.026   2.827  12.435 -1.1292  1.0301  1.7557
 2983SOL    HW210391  -0.090   2.733  12.459 -0.7690  0.0392 -0.1367
 2984SOL     OW10392   1.477   4.249   2.200 -0.2602 -0.1357 -0.8934
 2984SOL    HW110393   1.556   4.226   2.150  0.4327 -2.1211  0.9721
 2984SOL    HW210394   1.405   4.212   2.148  0.0252  1.1787 -2.3125
 2985SOL     OW10395   0.252   7.573   2.682  0.2833 -0.5116 -1.0108
 2985SOL    HW110396   0.343   7.542   2.681  0.3622 -0.2785 -1.5661
 2985SOL    HW210397   0.246   7.632   2.606 -0.2184 -0.2018 -0.7355
 2986SOL     OW10398   3.093   3.869   1.522  0.2925  0.4109 -0.3388
 2986SOL    HW110399   3.048   3.898   1.443 -1.4848 -0.6288  0.2295
 2986SOL    HW210400   3.140   3.790   1.495 -0.9027 -0.3649 -0.2425
 2987SOL     OW10401   0.063   5.701   2.094  0.6541 -0.0544  0.2143
 2987SOL    HW110402   0.028   5.789   2.078 -0.2258 -0.3752  0.3020
 2987SOL    HW210403   0.118   5.683   2.018  1.5356  0.9083  0.6066
 2988SOL     OW10404   1.954   4.344   0.802 -0.2072  0.3747  0.0636
 2988SOL    HW110405   1.861   4.325   0.797 -0.4230  1.3331  0.1681
 2988SOL    HW210406   1.992   4.303   0.725 -0.8332  0.6025 -0.3670
 2989SOL     OW10407   1.657   5.654   2.761  0.1591 -0.5232  0.3772
 2989SOL    HW110408   1.740   5.608   2.775 -0.4059 -1.5162  0.5607
 2989SOL    HW210409   1.590   5.589   2.780 -0.6802  0.4649  0.9181
 2990SOL     OW10410   3.155   4.224   0.876 -0.5015 -0.0960 -0.1923
 2990SOL    HW110411   3.224   4.290   0.867 -0.0834 -0.7366 -2.1544
 2990SOL    HW210412   3.116   4.242   0.961  2.4436 -0.0328  1.2632
 2991SOL     OW10413   2.779   4.627   3.276  0.1431  0.6459  0.0784
 2991SOL    HW110414   2.842   4.671   3.220 -3.0559  3.9410 -1.3903
 2991SOL    HW210415   2.814   4.638   3.365  2.3269  0.8874 -0.7510
 2992SOL     OW10416   1.386   5.040  12.387 -0.5063 -0.1015  0.2993
 2992SOL    HW110417   1.325   5.034  12.460 -1.4104 -0.9155 -0.5008
 2992SOL    HW210418   1.418   5.130  12.391 -1.8021  0.3706  0.7014
 2993SOL     OW10419   7.674   5.483  11.758 -0.2281  0.1206 -0.3585
 2993SOL    HW110420   7.753   5.522  11.796 -0.3229 -0.0759  0.0456
 2993SOL    HW210421   7.643   5.549  11.696  0.1310  0.2931 -0.3614
 2994SOL     OW10422   0.785   5.214   1.952  0.5667  0.8052 -0.0020
 2994SOL    HW110423   0.780   5.181   2.042  1.1551  1.4097  0.2562
 2994SOL    HW210424   0.866   5.264   1.949  0.8999  0.2243 -1.0681
 2995SOL     OW10425   7.929   4.266  12.023  0.1876 -0.8004 -0.7092
 2995SOL    HW110426   7.956   4.218  12.102  0.5605 -0.2518 -0.5001
 2995SOL    HW210427   7.883   4.343  12.057 -0.6892 -1.1640 -1.0477
 2996SOL     OW10428   2.913   3.210   0.027 -0.2894 -0.1385  0.3231
 2996SOL    HW110429   2.871   3.245   0.105 -0.5755  0.4796 -0.1049
 2996SOL    HW210430   2.984   3.271   0.008  0.1419 -0.5980  0.4248
 2997SOL     OW10431   1.824   4.253   0.076 -0.1624  0.8694 -0.1720
 2997SOL    HW110432   1.846   4.166   0.045  1.2641  1.6059 -1.4000
 2997SOL    HW210433   1.759   4.239   0.144  0.7495 -1.2106  0.3600
 2998SOL     OW10434   1.105   6.906   1.683 -0.1971 -0.3523 -0.0668
 2998SOL    HW110435   1.094   6.847   1.609  0.9816  0.1142 -0.6345
 2998SOL    HW210436   1.159   6.858   1.746  3.4550  1.0984 -1.8283
 2999SOL     OW10437   2.629   6.518   2.032  0.2566  0.3166 -0.7785
 2999SOL    HW110438   2.572   6.467   1.974  0.1062 -0.1610 -0.2098
 2999SOL    HW210439   2.642   6.463   2.109  2.4327 -0.0974 -1.3703
 3000SOL     OW10440   0.144   3.983   1.603  0.1175  0.1408  0.2298
 3000SOL    HW110441   0.062   3.998   1.651 -0.5464 -2.5071  0.1399
 3000SOL    HW210442   0.213   4.002   1.667 -0.7264 -2.4185  2.0911
 3001SOL     OW10443   0.560   6.197  12.183  0.2158  0.1325 -0.3394
 3001SOL    HW110444   0.560   6.131  12.113 -0.3449 -1.7170  1.2966
 3001SOL    HW210445   0.468   6.222  12.192  0.3324  0.6188 -0.4786
 3002SOL     OW10446   2.890   6.589   1.169 -0.0265  0.4879  0.2196
 3002SOL    HW110447   2.848   6.674   1.156 -0.3713  0.4140  0.7944
 3002SOL    HW210448   2.819   6.526   1.156 -0.1929  0.3714  1.4971
 3003SOL     OW10449   2.239   3.470  12.031  0.5055  0.3227 -0.8141
 3003SOL    HW110450   2.314   3.528  12.036  1.2017 -0.6422  0.2264
 3003SOL    HW210451   2.268   3.397  11.976 -0.1630  0.6532 -1.6232
 3004SOL     OW10452   6.108   3.540  11.895 -0.0241 -0.1996 -0.4840
 3004SOL    HW110453   6.108   3.557  11.989 -0.3967 -1.3968 -0.2496
 3004SOL    HW210454   6.199   3.553  11.868 -0.1299  1.3276 -0.2125
 3005SOL     OW10455   2.269   6.059   1.094 -0.5355 -0.8426  0.1324
 3005SOL    HW110456   2.225   6.141   1.074 -0.2455 -0.6175  0.4254
 3005SOL    HW210457   2.358   6.070   1.061 -1.3372 -2.2339 -2.8694
 3006SOL     OW10458   0.897   4.649   1.017  0.2745  0.2022 -0.3598
 3006SOL    HW110459   0.972   4.615   1.065  0.0452 -0.3748 -0.3991
 3006SOL    HW210460   0.917   4.633   0.925 -1.3412 -3.1559 -0.2688
 3007SOL     OW10461   7.424   4.359  12.359  0.3644  0.3723  0.0778
 3007SOL    HW110462   7.333   4.386  12.344  0.4896  0.5068 -0.4795
 3007SOL    HW210463   7.472   4.397  12.286  0.8060 -0.0216  0.1589
 3008SOL     OW10464   3.353   5.966  11.472 -0.4649  0.3256 -0.4208
 3008SOL    HW110465   3.340   5.994  11.562  0.5529 -0.4911  0.0069
 3008SOL    HW210466   3.265   5.951  11.438 -0.8379  0.0316  0.6417
 3009SOL     OW10467   0.826   5.972   1.670  0.3934  0.4125 -0.3510
 3009SOL    HW110468   0.832   5.991   1.764 -1.2924  0.4317 -0.2148
 3009SOL    HW210469   0.882   5.895   1.658  0.2446  0.1036  0.7835
 3010SOL     OW10470   2.179   5.603   3.440 -0.5351 -0.0606 -0.2607
 3010SOL    HW110471   2.248   5.543   3.414 -0.3297 -0.5080  1.2140
 3010SOL    HW210472   2.194   5.681   3.387  0.5701 -0.4671 -0.5772
 3011SOL     OW10473   2.827   5.382   1.382 -0.4974  0.1111  0.6816
 3011SOL    HW110474   2.825   5.321   1.309  2.6875  0.8306 -0.1809
 3011SOL    HW210475   2.777   5.339   1.451  0.4878 -2.8903 -0.3199
 3012SOL     OW10476   7.947   4.636   2.205  0.2318 -0.1295  0.7205
 3012SOL    HW110477   7.962   4.669   2.116  1.7966 -0.0922  0.9677
 3012SOL    HW210478   7.869   4.581   2.197  0.0688  0.2468 -0.5743
 3013SOL     OW10479   1.418   5.129   0.400 -0.5060 -0.2454  0.5577
 3013SOL    HW110480   1.417   5.155   0.307 -0.0951 -0.5371  0.4690
 3013SOL    HW210481   1.494   5.175   0.436  0.4904 -1.6465  0.3005
 3014SOL     OW10482   1.725   2.877   1.053  0.4306 -0.2452  0.3112
 3014SOL    HW110483   1.652   2.869   0.992  1.7940 -2.3095 -1.1906
 3014SOL    HW210484   1.752   2.969   1.048  0.4401 -0.3358 -2.1943
 3015SOL     OW10485   2.829   4.992   1.473 -0.2733 -0.3498 -0.0370
 3015SOL    HW110486   2.740   5.027   1.477  0.3924  1.6046 -0.9340
 3015SOL    HW210487   2.831   4.939   1.394 -0.1382  1.2453 -1.1425
 3016SOL     OW10488   1.484   5.934   1.269  0.5552 -0.0694  0.2725
 3016SOL    HW110489   1.450   5.936   1.358  0.5330  1.4279  0.2463
 3016SOL    HW210490   1.575   5.962   1.278  0.1123  1.7065 -0.3339
 3017SOL     OW10491   1.045   1.659   1.716 -0.1200 -0.0478  0.4498
 3017SOL    HW110492   1.118   1.624   1.666  0.9572  0.6114  1.5198
 3017SOL    HW210493   0.983   1.585   1.723 -0.3250 -0.1561 -1.7946
 3018SOL     OW10494   0.146   3.665  10.793 -0.0900 -0.2156 -0.4190
 3018SOL    HW110495   0.187   3.750  10.807 -1.8748  0.4473  1.2837
 3018SOL    HW210496   0.056   3.685  10.766 -0.5176 -1.5461 -0.0868
 3019SOL     OW10497   1.144   5.541   1.556  0.0057  0.9990 -0.3111
 3019SOL    HW110498   1.212   5.580   1.501  1.0072 -0.3527 -0.0581
 3019SOL    HW210499   1.091   5.489   1.496 -0.4814  1.6004 -0.4125
 3020SOL     OW10500   7.352   3.062   0.153  0.0873 -0.0416 -0.7127
 3020SOL    HW110501   7.346   3.112   0.071 -2.4276  2.6247  0.9047
 3020SOL    HW210502   7.446   3.056   0.171  0.5995  3.2123 -1.6441
 3021SOL     OW10503   1.096   5.718   1.271 -0.4000 -0.1897  0.8628
 3021SOL    HW110504   1.061   5.805   1.252 -1.1751 -0.5744  0.4851
 3021SOL    HW210505   1.044   5.659   1.216  0.5173 -0.8300  0.6562
 3022SOL     OW10506   1.358   5.697   1.438 -0.3461  0.0521  0.2764
 3022SOL    HW110507   1.295   5.704   1.367  0.3552  0.8693 -0.2701
 3022SOL    HW210508   1.362   5.785   1.476 -0.0356 -0.1620  0.7502
 3023SOL     OW10509   2.464   5.276   0.242  0.3781 -0.1018  0.2368
 3023SOL    HW110510   2.553   5.284   0.207  0.5409 -0.1352  0.6382
 3023SOL    HW210511   2.423   5.207   0.188  0.3316  0.4699 -0.4726
 3024SOL     OW10512   7.822   4.164   2.295 -0.1710  0.3575 -0.3304
 3024SOL    HW110513   7.883   4.116   2.349 -1.7018 -1.3668 -0.0392
 3024SOL    HW210514   7.836   4.131   2.206 -1.0736 -0.5235 -0.1639
 3025SOL     OW10515   1.581   5.046   2.081  0.0372  0.2641 -0.1273
 3025SOL    HW110516   1.567   5.128   2.129  0.1563  0.9371 -1.2264
 3025SOL    HW210517   1.666   5.056   2.038 -0.2915 -0.1209 -0.8938
 3026SOL     OW10518   1.353   5.652   2.306  0.5660  0.0987  0.1296
 3026SOL    HW110519   1.334   5.652   2.212 -0.8851 -0.1732  0.3999
 3026SOL    HW210520   1.318   5.735   2.337 -0.6081 -0.5951  0.7192
 3027SOL     OW10521   3.310   6.620   1.582  0.9883  0.1300 -0.3768
 3027SOL    HW110522   3.350   6.580   1.659  1.6225 -0.1182 -0.8258
 3027SOL    HW210523   3.369   6.598   1.510  0.7521  0.9281 -0.8241
 3028SOL     OW10524   1.895   4.977  11.946 -0.2204  0.0483 -0.0078
 3028SOL    HW110525   1.858   4.947  12.029 -0.0290  1.1743  0.5039
 3028SOL    HW210526   1.943   5.057  11.969 -1.4072  1.2218 -1.4327
 3029SOL     OW10527   2.209   3.315   1.047 -0.6275 -0.2375 -0.0498
 3029SOL    HW110528   2.189   3.234   1.094  0.2723 -0.1325  0.5375
 3029SOL    HW210529   2.222   3.381   1.116  2.4473 -0.4613 -0.2460
 3030SOL     OW10530   1.361   3.157   1.156 -0.1699 -0.0493 -0.2984
 3030SOL    HW110531   1.313   3.185   1.234 -0.7959  0.3574 -0.8135
 3030SOL    HW210532   1.453   3.156   1.184 -0.2863  0.9803  0.2014
 3031SOL     OW10533   0.874   4.638   1.699  0.3931 -0.3637  0.1372
 3031SOL    HW110534   0.905   4.673   1.616  0.9109  0.5790  0.7120
 3031SOL    HW210535   0.938   4.670   1.764 -1.1968  0.7726  1.2061
 3032SOL     OW10536   2.495   5.918   1.637 -0.0404  0.0458  0.2042
 3032SOL    HW110537   2.461   5.839   1.679  1.4209 -0.6085  0.2131
 3032SOL    HW210538   2.417   5.971   1.620 -0.8902 -0.6404  1.7244
 3033SOL     OW10539   6.636   5.448   0.355 -0.8040 -0.1830  0.3370
 3033SOL    HW110540   6.638   5.431   0.449 -1.7297  1.8627  0.7813
 3033SOL    HW210541   6.633   5.543   0.348 -0.3073 -0.2745 -1.7887
 3034SOL     OW10542   0.730   5.890   1.406 -0.0783  0.3417 -0.9333
 3034SOL    HW110543   0.755   5.907   1.497 -1.1249  1.4944 -0.8432
 3034SOL    HW210544   0.807   5.917   1.355  0.2146  0.4377 -0.4471
 3035SOL     OW10545   1.970   5.301   0.709  0.3409  0.5584  0.4934
 3035SOL    HW110546   1.893   5.356   0.723 -2.0589 -2.2281 -0.6728
 3035SOL    HW210547   2.034   5.333   0.772 -1.1339  4.0585  0.4432
 3036SOL     OW10548   1.555   5.276   0.666  0.0646  0.1946  0.1596
 3036SOL    HW110549   1.538   5.197   0.717 -0.2500  0.7764  0.9776
 3036SOL    HW210550   1.628   5.318   0.711 -1.0110  1.3453  0.8977
 3037SOL     OW10551   0.737   4.905   1.984 -0.2375 -0.4281 -0.1840
 3037SOL    HW110552   0.788   4.871   2.058 -0.9574 -0.4729  0.3074
 3037SOL    HW210553   0.646   4.889   2.009 -0.4959 -0.3182 -1.0268
 3038SOL     OW10554   0.036   6.135   0.085 -0.0526 -0.4206  0.7477
 3038SOL    HW110555   0.104   6.201   0.093  1.1820 -1.5781  0.1975
 3038SOL    HW210556   0.016   6.131  -0.008  1.7053 -2.5210  0.3886
 3039SOL     OW10557   0.658   5.176   1.607 -0.4330  0.1794 -0.3575
 3039SOL    HW110558   0.580   5.127   1.583  0.7930 -1.1373 -1.9031
 3039SOL    HW210559   0.658   5.252   1.549 -0.0631 -0.3698 -1.0977
 3040SOL     OW10560   2.183   4.481   2.852  0.0226  0.0520 -0.1169
 3040SOL    HW110561   2.175   4.517   2.764  1.9868  0.2542 -0.2639
 3040SOL    HW210562   2.131   4.539   2.907  2.3005  2.6741 -0.5003
 3041SOL     OW10563   1.276   3.620   1.994 -0.5836 -0.1576 -0.1326
 3041SOL    HW110564   1.290   3.528   2.015  1.0486 -0.0194 -0.4264
 3041SOL    HW210565   1.202   3.620   1.933 -1.2359 -1.1647  0.6364
 3042SOL     OW10566   3.301   6.157   1.120  0.3685 -0.5085 -0.1911
 3042SOL    HW110567   3.374   6.203   1.163  1.9967 -1.7241 -1.5606
 3042SOL    HW210568   3.242   6.228   1.093  1.6145  0.6230 -0.0947
 3043SOL     OW10569   1.156   3.736   1.159 -0.4892  0.6308 -0.4666
 3043SOL    HW110570   1.191   3.763   1.244  1.0886  0.5978 -1.0742
 3043SOL    HW210571   1.119   3.649   1.175 -1.9762  1.4129  0.6003
 3044SOL     OW10572   0.305   4.615  12.496 -0.0387  0.2006 -0.6201
 3044SOL    HW110573   0.242   4.590  12.427 -1.8010  0.4365  0.8215
 3044SOL    HW210574   0.348   4.532  12.518  0.5592  0.1168 -1.9665
 3045SOL     OW10575   1.686   5.899   2.958 -0.1121  0.0271 -0.0920
 3045SOL    HW110576   1.654   5.870   3.043  0.1369  2.2263  0.8024
 3045SOL    HW210577   1.719   5.819   2.916 -0.2851 -1.1093  1.8381
 3046SOL     OW10578   1.328   3.504   2.758  0.1438  0.2898 -0.5434
 3046SOL    HW110579   1.253   3.525   2.703 -1.1409 -1.4055  0.4541
 3046SOL    HW210580   1.405   3.519   2.702 -0.9362  1.5757 -1.7432
 3047SOL     OW10581   1.574   4.660  12.042 -0.3318 -0.1483 -0.2186
 3047SOL    HW110582   1.493   4.676  11.994 -1.3910 -1.2496  1.1251
 3047SOL    HW210583   1.553   4.588  12.101  2.1778 -1.7574 -1.1492
 3048SOL     OW10584   0.299   6.063   1.630 -0.1327 -0.1691  0.3400
 3048SOL    HW110585   0.343   6.138   1.590  0.0309 -0.4304  0.0148
 3048SOL    HW210586   0.278   6.091   1.719 -1.0962  0.6648 -0.1285
 3049SOL     OW10587   0.432   3.604  11.791  0.4965 -0.3332 -0.3867
 3049SOL    HW110588   0.348   3.628  11.829  0.5374 -0.6176 -0.1231
 3049SOL    HW210589   0.409   3.562  11.708  0.4387  1.2801 -1.2477
 3050SOL     OW10590   2.029   4.734   1.167  0.1809  0.2032 -0.3953
 3050SOL    HW110591   1.972   4.755   1.242  1.8094  2.7742  0.2569
 3050SOL    HW210592   2.078   4.656   1.196  0.3269  0.7683  0.9783
 3051SOL     OW10593   2.524   3.103   1.401 -0.1303 -0.0575  0.1754
 3051SOL    HW110594   2.452   3.042   1.418 -2.0322  1.4646 -1.7985
 3051SOL    HW210595   2.517   3.167   1.472  0.3474 -0.7894  0.9028
 3052SOL     OW10596   7.830   5.828   0.892  0.1048  0.2824 -0.4075
 3052SOL    HW110597   7.908   5.868   0.852  0.5264 -0.5801 -0.4715
 3052SOL    HW210598   7.852   5.735   0.899 -0.3863  0.2422  0.8467
 3053SOL     OW10599   0.716   5.266   0.725 -0.4073 -0.2623  0.1172
 3053SOL    HW110600   0.722   5.171   0.716  0.7670 -0.1654 -0.2704
 3053SOL    HW210601   0.801   5.293   0.759 -0.0878  0.8207 -1.4001
 3054SOL     OW10602   7.241   4.883   2.630  0.2770  0.0669 -0.1389
 3054SOL    HW110603   7.163   4.912   2.678  0.1666  1.3895 -1.0694
 3054SOL    HW210604   7.213   4.802   2.587  0.3886 -1.1670  1.9972
 3055SOL     OW10605   4.854   5.172   1.051 -0.0368  0.6394  0.0846
 3055SOL    HW110606   4.907   5.174   1.131  0.2203  0.7646 -0.0858
 3055SOL    HW210607   4.918   5.176   0.980 -0.0849 -1.9260 -0.2005
 3056SOL     OW10608   0.459   5.856   2.613 -0.4737  0.3895  0.1260
 3056SOL    HW110609   0.397   5.903   2.669  0.7321  0.0898  1.7878
 3056SOL    HW210610   0.405   5.817   2.545 -2.2666 -0.6815  2.0611
 3057SOL     OW10611   0.329   5.816   3.512  0.0396  0.0994  0.7718
 3057SOL    HW110612   0.370   5.890   3.467 -1.0223  0.0189 -0.3934
 3057SOL    HW210613   0.349   5.740   3.456 -0.7154 -0.1182  0.7842
 3058SOL     OW10614   1.284   4.233   2.882 -0.1374 -0.1461 -0.2035
 3058SOL    HW110615   1.350   4.254   2.947 -0.4572  0.7104 -0.1492
 3058SOL    HW210616   1.201   4.240   2.928 -0.2890 -0.9527 -0.3415
 3059SOL     OW10617   0.501   5.386   2.644  0.0621 -0.0549 -0.6108
 3059SOL    HW110618   0.451   5.432   2.711  1.1601 -0.1401  0.3050
 3059SOL    HW210619   0.518   5.451   2.576  0.0421  0.3897 -0.1896
 3060SOL     OW10620   0.906   3.284   3.286 -0.2615  0.3129 -0.5485
 3060SOL    HW110621   0.980   3.343   3.297  0.9312 -1.1962 -0.1251
 3060SOL    HW210622   0.944   3.196   3.292 -2.5768 -0.7288  4.5307
 3061SOL     OW10623   7.637   5.143   4.006 -0.0007 -0.7594 -0.0738
 3061SOL    HW110624   7.588   5.147   3.924  0.7860  1.2653 -0.5054
 3061SOL    HW210625   7.601   5.213   4.060  1.2231 -0.3709  0.2853
 3062SOL     OW10626   1.694   5.435   4.410  0.6075 -0.0596 -0.0868
 3062SOL    HW110627   1.766   5.485   4.449  1.3647 -1.4185  0.3016
 3062SOL    HW210628   1.726   5.410   4.323  0.8766 -1.2202  0.3360
 3063SOL     OW10629   7.328   4.298   4.707 -0.2529  0.5542 -0.0346
 3063SOL    HW110630   7.284   4.221   4.673 -0.4278  0.0670  1.2323
 3063SOL    HW210631   7.403   4.311   4.649  0.8680 -1.7168  0.7981
 3064SOL     OW10632   1.064   6.748   3.947 -0.8688  0.4410  0.0716
 3064SOL    HW110633   1.056   6.722   3.855  0.5162 -0.7416  0.2550
 3064SOL    HW210634   1.062   6.666   3.995 -0.3892  0.9628  1.0053
 3065SOL     OW10635   4.665   5.047   2.801  0.3718  0.7195  0.5083
 3065SOL    HW110636   4.655   5.129   2.849 -1.3824  0.5654  0.4681
 3065SOL    HW210637   4.607   4.986   2.845 -1.1564  0.5092 -1.6369
 3066SOL     OW10638   6.992   3.803   3.043 -0.5768  0.6683  0.3291
 3066SOL    HW110639   6.987   3.739   3.114  1.8621  0.8408  0.7472
 3066SOL    HW210640   7.045   3.761   2.976 -0.1340  1.7096  0.0024
 3067SOL     OW10641   1.442   3.884   3.149  0.3379 -0.0703  0.4395
 3067SOL    HW110642   1.457   3.963   3.201 -0.5496  0.1023  0.4548
 3067SOL    HW210643   1.524   3.835   3.155  1.3204  1.3701 -0.5013
 3068SOL     OW10644   7.631   4.849   3.513 -0.3681  0.6757 -0.2165
 3068SOL    HW110645   7.588   4.910   3.453  0.6277 -0.1553 -1.8444
 3068SOL    HW210646   7.653   4.773   3.458 -1.3286 -1.0588  1.6672
 3069SOL     OW10647   1.668   6.507   2.059 -0.1913  0.3736  0.0938
 3069SOL    HW110648   1.678   6.447   1.984  0.7411  0.9941 -0.3025
 3069SOL    HW210649   1.693   6.454   2.135 -1.4402 -0.3560  0.0285
 3070SOL     OW10650   1.436   4.935   2.887  0.0141 -0.3867 -0.1806
 3070SOL    HW110651   1.403   5.004   2.944  0.5623  0.5725 -0.9799
 3070SOL    HW210652   1.531   4.949   2.885  0.0661 -0.7603 -0.8427
 3071SOL     OW10653   7.001   6.420   3.077  0.0815 -0.1461  0.3642
 3071SOL    HW110654   7.037   6.334   3.056  1.0048  0.5949 -1.3508
 3071SOL    HW210655   7.067   6.481   3.044 -1.7019  1.2520 -0.8174
 3072SOL     OW10656   0.057   5.744   4.097  0.1393  1.0434  0.2540
 3072SOL    HW110657   0.131   5.686   4.078 -2.9712 -2.4247 -3.0636
 3072SOL    HW210658   0.024   5.714   4.182 -0.2785 -0.8781 -0.5408
 3073SOL     OW10659   5.835   4.323   2.674  0.1151 -0.4804 -0.0862
 3073SOL    HW110660   5.797   4.346   2.589  2.1257 -1.9824 -1.4950
 3073SOL    HW210661   5.808   4.232   2.688 -0.6902 -0.0577  1.1955
 3074SOL     OW10662   0.242   5.450   1.436 -0.0955 -0.2655 -0.3566
 3074SOL    HW110663   0.163   5.425   1.483 -0.3686  0.8478 -0.1992
 3074SOL    HW210664   0.310   5.450   1.502  0.0595 -1.2148 -0.4900
 3075SOL     OW10665   2.718   3.977   2.572 -0.4295  0.2403 -0.1908
 3075SOL    HW110666   2.682   4.064   2.592 -2.5105 -0.6942  0.4594
 3075SOL    HW210667   2.766   3.990   2.490 -0.2407  2.1013  0.1654
 3076SOL     OW10668   6.166   6.155   0.874  0.1439  0.3765  0.1101
 3076SOL    HW110669   6.102   6.181   0.940  1.2925 -2.5422  2.6410
 3076SOL    HW210670   6.119   6.093   0.818  0.4966 -1.4980  1.7551
 3077SOL     OW10671   1.044   5.465   2.302  0.0877 -0.0343  0.1881
 3077SOL    HW110672   1.127   5.509   2.315  0.6609 -0.3131 -1.9974
 3077SOL    HW210673   0.978   5.531   2.320  0.8871  1.1268 -0.9493
 3078SOL     OW10674   0.127   4.988   3.405  0.3162  0.1910 -0.4166
 3078SOL    HW110675   0.081   4.922   3.456 -0.8603 -0.1915 -1.8930
 3078SOL    HW210676   0.061   5.022   3.344  0.6911  3.2046  0.6915
 3079SOL     OW10677   6.657   3.430   2.515  0.2495 -0.1131  0.1300
 3079SOL    HW110678   6.658   3.468   2.427  0.6310  0.1444  0.2461
 3079SOL    HW210679   6.634   3.502   2.573 -2.8599 -0.8427 -0.0106
 3080SOL     OW10680   1.325   5.933   2.292 -0.4743 -0.0369  0.3080
 3080SOL    HW110681   1.358   5.912   2.205 -1.0122  1.0232 -0.1768
 3080SOL    HW210682   1.354   6.023   2.307 -1.4490  0.2174  0.6968
 3081SOL     OW10683   1.657   4.650   4.739 -0.4026 -0.2342 -0.0532
 3081SOL    HW110684   1.637   4.675   4.649  0.3470 -0.2977 -0.2419
 3081SOL    HW210685   1.750   4.672   4.750 -0.8017  0.9941  1.1121
 3082SOL     OW10686   0.638   4.402   2.629  0.2460 -0.4316 -0.6551
 3082SOL    HW110687   0.613   4.311   2.610 -1.2225 -0.2773  0.3496
 3082SOL    HW210688   0.683   4.397   2.713  0.6052 -0.2951 -0.8408
 3083SOL     OW10689   6.777   4.543   1.002 -0.2494  0.6236 -0.3827
 3083SOL    HW110690   6.779   4.639   1.009 -0.9962  0.7137 -1.1982
 3083SOL    HW210691   6.684   4.521   1.003 -0.1058 -0.0408 -0.7943
 3084SOL     OW10692   1.202   3.923   2.946 -0.0456  0.0378 -0.2593
 3084SOL    HW110693   1.128   3.932   2.885 -0.1155 -1.7250 -0.4896
 3084SOL    HW210694   1.274   3.969   2.903 -0.6800  0.7414 -0.6014
 3085SOL     OW10695   2.793   4.369   2.912  0.4271 -0.4098 -0.3155
 3085SOL    HW110696   2.827   4.306   2.849  0.5785 -1.8122  1.1007
 3085SOL    HW210697   2.870   4.396   2.963 -0.0833 -1.4974  1.1025
 3086SOL     OW10698   0.710   3.069   3.696  0.5988 -0.1692 -0.3615
 3086SOL    HW110699   0.775   3.115   3.749 -0.6924  0.2219  0.9389
 3086SOL    HW210700   0.645   3.136   3.675  0.0991 -0.7835 -0.7971
 3087SOL     OW10701   0.306   4.774   3.050 -0.4253  0.3113  0.1959
 3087SOL    HW110702   0.358   4.839   3.004 -1.9379  1.6534  0.2864
 3087SOL    HW210703   0.312   4.799   3.142 -2.5653  1.5626  0.0512
 3088SOL     OW10704   2.035   4.570   1.819 -0.2714  0.1994 -0.0089
 3088SOL    HW110705   1.988   4.643   1.859  0.4757  1.8801 -2.0058
 3088SOL    HW210706   2.128   4.588   1.836  0.1596  1.4666 -2.9981
 3089SOL     OW10707   1.841   5.214   2.045  0.1780  0.1863  0.0558
 3089SOL    HW110708   1.882   5.236   2.129 -0.4405 -3.9898  1.7006
 3089SOL    HW210709   1.915   5.191   1.988  0.5054 -0.4712  0.7157
 3090SOL     OW10710   0.483   4.786   2.376  0.0971 -0.2664  0.4429
 3090SOL    HW110711   0.429   4.751   2.447  1.1159  0.0211  1.4024
 3090SOL    HW210712   0.492   4.714   2.314  1.0697 -1.2913  1.7338
 3091SOL     OW10713   0.691   4.238   1.895  0.0257 -0.0952  0.3625
 3091SOL    HW110714   0.641   4.182   1.835 -0.4948  1.1729 -0.4345
 3091SOL    HW210715   0.777   4.247   1.854 -0.1914  0.4206  0.0040
 3092SOL     OW10716   1.608   6.115   4.889  0.4277 -0.0054  0.2490
 3092SOL    HW110717   1.689   6.140   4.844  0.0799  0.8389  0.0754
 3092SOL    HW210718   1.573   6.198   4.923 -0.2708 -0.3877  0.4776
 3093SOL     OW10719   0.993   5.162   3.833  0.1229 -0.3121  0.1307
 3093SOL    HW110720   0.920   5.218   3.808 -0.8468 -1.6452 -0.1295
 3093SOL    HW210721   1.006   5.178   3.927  0.7775  1.3324 -0.2153
 3094SOL     OW10722   0.157   5.345   3.138  0.5537 -0.2908  0.2542
 3094SOL    HW110723   0.141   5.379   3.226  1.1732 -0.7984  0.5741
 3094SOL    HW210724   0.071   5.315   3.108  0.2738  0.2023  0.5457
 3095SOL     OW10725   0.701   4.950   2.401  0.4765  0.0613 -0.0809
 3095SOL    HW110726   0.622   4.896   2.393  1.5036 -1.6134  0.5700
 3095SOL    HW210727   0.715   4.958   2.495  1.7627 -0.7441 -0.1767
 3096SOL     OW10728   7.656   4.869   2.616  0.0076  0.5491  0.0559
 3096SOL    HW110729   7.652   4.963   2.636 -0.7602  1.0167 -2.0189
 3096SOL    HW210730   7.741   4.841   2.648 -0.2841  1.6347  1.9170
 3097SOL     OW10731   0.018   3.753   1.880 -0.2643 -0.5740 -0.8031
 3097SOL    HW110732  -0.027   3.704   1.812 -0.9056  1.1949 -1.6935
 3097SOL    HW210733   0.111   3.730   1.868 -0.3541 -0.2585 -2.3259
 3098SOL     OW10734   7.453   5.371   1.615 -0.3400 -0.2348  0.3166
 3098SOL    HW110735   7.515   5.363   1.543 -0.6254 -0.9419  0.1413
 3098SOL    HW210736   7.400   5.292   1.610 -0.7323 -0.0212  0.9582
 3099SOL     OW10737   1.194   5.570   1.816  0.2871  0.6343 -0.4909
 3099SOL    HW110738   1.176   5.540   1.727  1.5530  0.5004 -0.7217
 3099SOL    HW210739   1.289   5.561   1.826  0.0139 -0.8023  1.4006
 3100SOL     OW10740   0.990   3.665   4.054 -0.5277 -0.2310  0.1375
 3100SOL    HW110741   1.005   3.745   4.105  1.5633 -1.0692  0.9367
 3100SOL    HW210742   0.912   3.626   4.093 -1.1434  1.0211  0.2172
 3101SOL     OW10743   1.465   5.235   2.834  0.4472 -0.6682  0.3972
 3101SOL    HW110744   1.526   5.181   2.884  0.8420 -1.0705 -0.5125
 3101SOL    HW210745   1.381   5.223   2.879  0.8098 -0.9654  1.0062
 3102SOL     OW10746   1.335   3.038   2.010  0.0291  0.1306  0.2643
 3102SOL    HW110747   1.289   2.955   1.997 -0.6629  0.7474 -1.5251
 3102SOL    HW210748   1.375   3.029   2.097  0.0204 -2.0802  0.1195
 3103SOL     OW10749   7.818   5.642   1.595  0.4911  0.0460 -0.4320
 3103SOL    HW110750   7.855   5.679   1.515 -1.8694 -2.1686 -2.7182
 3103SOL    HW210751   7.871   5.565   1.614 -0.3770 -0.7847 -1.3032
 3104SOL     OW10752   7.760   5.752   4.226 -0.2537  0.7586  0.0887
 3104SOL    HW110753   7.794   5.823   4.172 -0.3076  0.2892 -0.5698
 3104SOL    HW210754   7.768   5.674   4.172  0.7701  0.0782  1.1780
 3105SOL     OW10755   2.735   4.400   2.566 -0.4750 -0.3821  0.1770
 3105SOL    HW110756   2.738   4.402   2.470 -0.0377 -0.3335  0.1881
 3105SOL    HW210757   2.672   4.332   2.586  0.3942 -1.3147 -0.1488
 3106SOL     OW10758   3.711   6.874   3.778 -0.1403 -0.0425 -0.0115
 3106SOL    HW110759   3.769   6.892   3.704 -0.8166 -1.8280 -1.0392
 3106SOL    HW210760   3.624   6.865   3.739 -0.8045  0.6281  1.2443
 3107SOL     OW10761   1.563   4.058   2.463  0.1601 -0.5635 -0.1057
 3107SOL    HW110762   1.643   4.037   2.416  0.6221  0.5796  0.1399
 3107SOL    HW210763   1.500   4.083   2.395  1.1339  2.1035 -0.1408
 3108SOL     OW10764   1.656   3.177   2.377  0.5437  0.3007 -0.1156
 3108SOL    HW110765   1.672   3.225   2.458  0.2556  1.0961 -0.5202
 3108SOL    HW210766   1.706   3.226   2.310 -1.0883  1.0527 -0.8460
 3109SOL     OW10767   1.150   5.803   1.935  0.0702 -0.1264 -0.4692
 3109SOL    HW110768   1.150   5.729   1.874  0.2369  1.1722 -2.1201
 3109SOL    HW210769   1.058   5.814   1.960  0.1965 -1.6771  0.8662
 3110SOL     OW10770   1.835   5.312   1.072 -0.0164 -0.3911  0.4904
 3110SOL    HW110771   1.915   5.259   1.073 -0.2947 -0.8852 -1.1753
 3110SOL    HW210772   1.764   5.248   1.067 -0.4240  0.1028 -0.1003
 3111SOL     OW10773   6.946   6.568   2.665  0.0782  0.2392  0.3192
 3111SOL    HW110774   6.986   6.521   2.738 -0.1929  1.2331  1.1231
 3111SOL    HW210775   6.853   6.544   2.670  0.0717  0.2502  0.2534
 3112SOL     OW10776   0.843   4.370   2.215  0.0445 -0.3362  0.0383
 3112SOL    HW110777   0.926   4.337   2.181  1.4652  1.8811  1.1870
 3112SOL    HW210778   0.865   4.409   2.299 -1.9286  1.4309 -0.1972
 3113SOL     OW10779   0.592   6.003   2.372  0.3150 -0.4094 -0.0008
 3113SOL    HW110780   0.507   5.963   2.394 -0.0974  1.3082  1.7992
 3113SOL    HW210781   0.635   6.016   2.456  1.7241  0.1544 -0.7744
 3114SOL     OW10782   2.254   3.115   1.790  0.2737 -0.1713 -0.0938
 3114SOL    HW110783   2.273   3.192   1.844  1.3464 -0.0434 -0.6312
 3114SOL    HW210784   2.181   3.143   1.734 -0.7592 -0.2573  1.1416
 3115SOL     OW10785   7.525   5.782   3.169 -0.0437 -0.2017  0.1595
 3115SOL    HW110786   7.477   5.756   3.091  1.4549 -0.9614 -0.5567
 3115SOL    HW210787   7.565   5.701   3.201  0.9833  0.4390  0.5556
 3116SOL     OW10788   0.362   5.547   2.188 -0.3267  0.5083  0.6191
 3116SOL    HW110789   0.287   5.489   2.189  0.8121 -1.0159  0.8598
 3116SOL    HW210790   0.421   5.510   2.123 -0.0623  2.0819 -0.0883
 3117SOL     OW10791   7.601   5.129   3.014 -0.2601  0.0002  0.4358
 3117SOL    HW110792   7.586   5.144   2.920 -0.9937  1.6353  0.7801
 3117SOL    HW210793   7.664   5.196   3.039 -0.2546 -0.2755  1.1690
 3118SOL     OW10794   1.871   4.045   4.105 -0.4416 -0.0350 -0.1869
 3118SOL    HW110795   1.928   4.090   4.042  0.7146  0.9067  1.4769
 3118SOL    HW210796   1.860   4.107   4.176  0.1778 -1.8825  1.6186
 3119SOL     OW10797   7.338   4.804   1.057 -0.1328  0.7051  0.1291
 3119SOL    HW110798   7.265   4.861   1.083  0.2313  1.6805 -0.9186
 3119SOL    HW210799   7.416   4.859   1.065  0.3952 -0.0491  0.3486
 3120SOL     OW10800   1.935   3.955   5.072  0.4779 -0.5036  0.0607
 3120SOL    HW110801   2.026   3.939   5.051  0.1942 -0.0260 -1.6959
 3120SOL    HW210802   1.914   4.038   5.028 -0.3441  0.3090  1.8674
 3121SOL     OW10803   2.418   5.208   0.800 -0.2031  0.0480 -0.0890
 3121SOL    HW110804   2.432   5.140   0.735 -0.8534 -0.9880  0.8151
 3121SOL    HW210805   2.436   5.290   0.754  1.0909 -0.7495 -1.0586
 3122SOL     OW10806   0.136   4.199   2.758 -0.2470  0.4998  0.7194
 3122SOL    HW110807   0.209   4.137   2.763 -0.3059  0.4908  1.7193
 3122SOL    HW210808   0.159   4.258   2.687  0.7351  0.4811  1.0087
 3123SOL     OW10809   1.071   7.709   3.578 -0.1249 -0.2614  0.3706
 3123SOL    HW110810   1.141   7.729   3.516  0.1171  0.3552  0.8366
 3123SOL    HW210811   1.025   7.792   3.591 -3.0419 -1.1981 -2.4063
 3124SOL     OW10812   2.719   4.060   3.004 -0.0452  0.0613  0.3254
 3124SOL    HW110813   2.767   3.978   2.999 -0.5114 -0.1392 -2.6963
 3124SOL    HW210814   2.779   4.126   2.969 -0.8530  0.3372 -0.5998
 3125SOL     OW10815   1.291   4.251  12.204 -0.1180  0.2610 -0.0813
 3125SOL    HW110816   1.378   4.212  12.209 -0.3408 -0.2580 -0.1942
 3125SOL    HW210817   1.278   4.293  12.289  0.7908  1.5340 -0.5428
 3126SOL     OW10818   0.101   5.436   2.190  0.2023  0.6378 -0.0196
 3126SOL    HW110819   0.101   5.529   2.167  2.2036  0.7194  0.1319
 3126SOL    HW210820   0.109   5.436   2.286  1.4648  0.3647 -0.0975
 3127SOL     OW10821   6.670   3.288   1.963  0.5324 -0.6512  0.2329
 3127SOL    HW110822   6.652   3.365   2.018 -0.2989 -0.2392 -0.5825
 3127SOL    HW210823   6.675   3.324   1.874  0.7260 -1.4659 -0.0901
 3128SOL     OW10824   7.217   4.034   2.066  0.4808 -0.5148  0.0106
 3128SOL    HW110825   7.213   4.041   1.970 -1.8648  0.0490  0.0930
 3128SOL    HW210826   7.209   3.940   2.083  1.0488 -0.6317 -0.3375
 3129SOL     OW10827   0.879   4.676   2.747  0.0934 -0.4973  0.0470
 3129SOL    HW110828   0.849   4.598   2.793  1.7577 -0.6197  1.0200
 3129SOL    HW210829   0.969   4.655   2.722 -0.0824  0.3829 -1.4292
 3130SOL     OW10830   1.426   4.207   1.581  0.7975  0.3046  0.3564
 3130SOL    HW110831   1.498   4.230   1.522  3.1340  1.9154  3.5527
 3130SOL    HW210832   1.465   4.149   1.646 -1.4577 -0.8168  0.8194
 3131SOL     OW10833   7.035   6.689   2.434  0.2050 -0.1020 -0.1337
 3131SOL    HW110834   7.010   6.637   2.511  0.6705 -0.3074 -0.1184
 3131SOL    HW210835   7.045   6.778   2.468 -0.8157  0.0608 -0.2027
 3132SOL     OW10836   7.353   5.884   2.688 -0.0322  0.6953 -0.4586
 3132SOL    HW110837   7.300   5.807   2.711  0.1509  1.2656  2.1404
 3132SOL    HW210838   7.412   5.852   2.619 -0.2207 -1.3980  0.2797
 3133SOL     OW10839   1.115   4.554   2.662  0.0465  0.1810  0.8904
 3133SOL    HW110840   1.152   4.572   2.748  0.6941 -0.7467  0.8234
 3133SOL    HW210841   1.185   4.575   2.600  1.2710 -3.3452  0.8537
 3134SOL     OW10842   1.236   4.661   2.897 -0.2355  0.4650  0.0300
 3134SOL    HW110843   1.307   4.720   2.872 -1.6633  2.3981  0.2678
 3134SOL    HW210844   1.212   4.690   2.985 -0.1639 -1.3583  0.6882
 3135SOL     OW10845   6.155   4.546   2.494  0.4025  0.0240 -1.1493
 3135SOL    HW110846   6.120   4.559   2.406 -0.3555  1.1767 -0.7024
 3135SOL    HW210847   6.078   4.526   2.548  0.4092  2.2655 -0.2142
 3136SOL     OW10848   1.929   4.753   4.005 -0.3239 -0.4686  0.3338
 3136SOL    HW110849   1.918   4.848   4.003 -0.0098 -0.4448 -0.8066
 3136SOL    HW210850   2.024   4.740   4.005 -0.2776 -0.7783 -2.8353
 3137SOL     OW10851   7.797   4.460   1.878 -0.0357  0.4471  0.5379
 3137SOL    HW110852   7.890   4.482   1.872 -0.1451  1.0376  0.9594
 3137SOL    HW210853   7.773   4.433   1.789  0.6926 -0.3587  0.5637
 3138SOL     OW10854   1.117   3.550   2.618  0.0521 -0.0706 -0.2063
 3138SOL    HW110855   1.124   3.594   2.533  1.0297  1.4870  0.6364
 3138SOL    HW210856   1.084   3.463   2.597 -0.0529  0.3898 -2.1473
 3139SOL     OW10857   2.357   4.481   2.444 -0.4933  0.6989  0.2184
 3139SOL    HW110858   2.437   4.531   2.428 -0.3499  1.2901  2.4859
 3139SOL    HW210859   2.373   4.396   2.403  1.1148  0.9562  0.2449
 3140SOL     OW10860   0.532   2.679   3.527  0.9233  0.2677  0.7569
 3140SOL    HW110861   0.525   2.773   3.508 -0.0669 -0.0382 -0.4893
 3140SOL    HW210862   0.589   2.644   3.459 -1.0036 -0.4853 -0.5544
 3141SOL     OW10863   1.676   4.424  12.442  0.5626 -0.3254 -0.4712
 3141SOL    HW110864   1.714   4.353  12.493 -2.2046  0.7038  3.4577
 3141SOL    HW210865   1.727   4.502  12.466 -0.0607 -0.0234 -0.0879
 3142SOL     OW10866   2.525   4.533   3.667 -0.9774 -0.4651  0.5188
 3142SOL    HW110867   2.533   4.465   3.600  0.8537  0.5435 -0.3583
 3142SOL    HW210868   2.582   4.504   3.738  0.8441  0.6906 -0.3960
 3143SOL     OW10869   2.866   3.522   1.739 -0.1016  0.4134 -0.3007
 3143SOL    HW110870   2.945   3.534   1.792  0.1161 -0.7390 -0.3291
 3143SOL    HW210871   2.877   3.581   1.665  2.5623 -2.2940 -2.2993
 3144SOL     OW10872   1.070   5.173   2.241 -0.4714  0.5784  0.0766
 3144SOL    HW110873   1.059   5.267   2.250  0.0995  0.6492  0.0176
 3144SOL    HW210874   1.151   5.153   2.286 -1.2756 -0.0861  1.2972
 3145SOL     OW10875   1.885   5.561   2.478 -0.0865 -0.3107  0.3150
 3145SOL    HW110876   1.900   5.473   2.445  1.1420 -0.8686  2.1843
 3145SOL    HW210877   1.808   5.552   2.534  0.4307 -0.3724  1.0325
 3146SOL     OW10878   1.524   4.173   3.716  0.0551  0.0540 -1.3093
 3146SOL    HW110879   1.559   4.091   3.680 -2.1717 -0.9214 -1.4471
 3146SOL    HW210880   1.455   4.144   3.776  0.2123  1.8210 -0.2338
 3147SOL     OW10881   0.974   5.417   1.863 -0.4872  0.3577  0.3785
 3147SOL    HW110882   0.915   5.460   1.800  0.0072  0.1563 -0.2268
 3147SOL    HW210883   1.061   5.451   1.841 -0.2120 -0.2684  0.4813
 3148SOL     OW10884   7.915   3.911   2.619 -0.6116 -0.3624 -0.4521
 3148SOL    HW110885   7.832   3.927   2.664  0.4700  0.7636  1.2336
 3148SOL    HW210886   7.960   3.847   2.674 -0.2043 -0.7238 -1.1847
 3149SOL     OW10887   1.629   5.754   2.293  0.5624 -0.2201  0.0167
 3149SOL    HW110888   1.543   5.731   2.258  1.1804 -1.5641 -0.7093
 3149SOL    HW210889   1.611   5.821   2.359 -0.9467  0.1330 -0.7056
 3150SOL     OW10890   0.025   3.135   4.881 -1.0112  0.2102  0.0417
 3150SOL    HW110891   0.018   3.040   4.890 -0.6677 -0.0317 -1.7955
 3150SOL    HW210892   0.076   3.163   4.957  1.5856 -1.5071 -0.9241
 3151SOL     OW10893   7.840   6.210   2.760  0.4498  0.4875 -0.0649
 3151SOL    HW110894   7.844   6.298   2.797 -1.0612  0.3764  0.4535
 3151SOL    HW210895   7.855   6.222   2.666  0.5566  1.2486  0.0429
 3152SOL     OW10896   1.780   4.263   2.961 -0.1199 -0.2020 -0.2225
 3152SOL    HW110897   1.810   4.342   3.006 -0.8393  0.0996 -0.2736
 3152SOL    HW210898   1.860   4.227   2.921 -0.0884  1.5446 -1.8509
 3153SOL     OW10899   7.843   6.172   2.184  0.3772 -0.1757  0.1912
 3153SOL    HW110900   7.937   6.171   2.165  0.5426  0.9881  0.8086
 3153SOL    HW210901   7.803   6.127   2.111  1.3214  0.4674 -0.7572
 3154SOL     OW10902   3.053   4.204   4.352  0.6490  0.2493 -0.4218
 3154SOL    HW110903   3.145   4.217   4.327  0.6902  2.7543  0.6742
 3154SOL    HW210904   3.053   4.212   4.447 -0.3362 -3.0126 -0.0290
 3155SOL     OW10905   5.914   4.205   1.689  0.5628  0.0598  0.3170
 3155SOL    HW110906   5.819   4.203   1.684  0.5180 -0.1992  1.1070
 3155SOL    HW210907   5.939   4.286   1.645  0.0896 -0.6757 -1.3612
 3156SOL     OW10908   7.080   4.617   2.028 -0.1658  0.0910  0.3517
 3156SOL    HW110909   7.033   4.595   2.108 -0.5517  0.5509  0.2513
 3156SOL    HW210910   7.083   4.712   2.026  0.3916  0.0754  0.1337
 3157SOL     OW10911   0.597   2.823   1.603 -0.6898  0.0999  0.0632
 3157SOL    HW110912   0.602   2.743   1.551  0.0813 -0.1794  0.5565
 3157SOL    HW210913   0.662   2.881   1.566 -0.6743  0.1882  0.2262
 3158SOL     OW10914   2.919   4.100   2.754  0.3213 -0.1377  0.1360
 3158SOL    HW110915   3.014   4.085   2.751  0.4839  0.4877  1.4154
 3158SOL    HW210916   2.884   4.049   2.680  1.5534 -1.0439  0.1452
 3159SOL     OW10917   0.770   4.089   2.351 -0.5368 -0.2487 -0.2229
 3159SOL    HW110918   0.746   4.168   2.302  0.3332  0.6019  0.6737
 3159SOL    HW210919   0.687   4.043   2.365 -1.0063  0.3276 -1.0566
 3160SOL     OW10920   0.196   5.809   1.653  0.7201 -0.3565  0.3715
 3160SOL    HW110921   0.206   5.752   1.577  0.2422 -0.0839  0.1002
 3160SOL    HW210922   0.224   5.895   1.622 -0.8396  0.0790  0.0575
 3161SOL     OW10923   7.325   4.250   1.462 -0.0605 -0.2816 -0.4395
 3161SOL    HW110924   7.306   4.271   1.370 -0.7601  1.2428  0.0294
 3161SOL    HW210925   7.415   4.219   1.461  0.3562  0.8897 -1.4909
 3162SOL     OW10926   0.344   5.556   3.110  0.1420 -0.4693 -0.1232
 3162SOL    HW110927   0.426   5.552   3.159 -0.0297 -0.4935  0.1624
 3162SOL    HW210928   0.276   5.550   3.176 -0.0993 -1.7762 -0.4771
 3163SOL     OW10929   1.335   3.069   3.150  0.2720 -0.0881  0.3236
 3163SOL    HW110930   1.404   3.049   3.213  0.5548  0.3693  0.1637
 3163SOL    HW210931   1.349   3.161   3.127 -0.0486 -0.1481 -0.1309
 3164SOL     OW10932   7.758   3.163   2.093  0.1811 -0.1535 -0.1291
 3164SOL    HW110933   7.682   3.165   2.034  0.7853  1.0777 -0.8979
 3164SOL    HW210934   7.720   3.158   2.181 -0.7575 -0.9204 -0.5579
 3165SOL     OW10935   0.666   2.267   2.560 -0.2164 -0.9774 -0.2465
 3165SOL    HW110936   0.645   2.243   2.470  0.9652  0.8427 -1.0679
 3165SOL    HW210937   0.741   2.212   2.582 -0.4133 -1.3228 -0.4333
 3166SOL     OW10938   1.381   4.549   3.750 -0.3219  0.0413 -0.0179
 3166SOL    HW110939   1.297   4.544   3.795 -0.1820  1.7484  0.5117
 3166SOL    HW210940   1.391   4.641   3.728  2.3228  0.3315  1.8326
 3167SOL     OW10941   7.097   4.247   3.851 -0.4877 -0.3605  0.0304
 3167SOL    HW110942   7.115   4.239   3.944  0.4266 -0.0055 -0.1084
 3167SOL    HW210943   7.172   4.206   3.808 -1.2936 -1.2769 -0.5475
 3168SOL     OW10944   7.670   4.503   2.388 -0.8226  0.2034  0.1002
 3168SOL    HW110945   7.603   4.571   2.393 -0.9330  0.4596 -3.0376
 3168SOL    HW210946   7.690   4.495   2.295  1.8163 -1.5485  0.6862
 3169SOL     OW10947   0.276   7.281   2.058 -0.2330 -0.1185 -0.5291
 3169SOL    HW110948   0.244   7.361   2.098 -2.0375 -0.3415 -1.4340
 3169SOL    HW210949   0.296   7.223   2.132 -3.4764 -0.5345  0.1551
 3170SOL     OW10950   1.965   4.280   5.207 -0.4162  0.3995  0.9487
 3170SOL    HW110951   2.000   4.201   5.247 -1.6352 -0.5228  0.2316
 3170SOL    HW210952   2.041   4.322   5.167  0.0733 -0.9377  0.4298
 3171SOL     OW10953   7.227   3.349   1.810  0.8786 -0.1262 -0.2594
 3171SOL    HW110954   7.143   3.340   1.855 -0.4483 -2.6117 -2.8806
 3171SOL    HW210955   7.280   3.277   1.844  1.3050  0.3660  0.1226
 3172SOL     OW10956   1.652   2.790   3.462  0.0651 -0.4774  0.1588
 3172SOL    HW110957   1.734   2.743   3.475 -0.2832 -1.0021  0.5431
 3172SOL    HW210958   1.599   2.766   3.539 -0.2924  0.1816  0.1240
 3173SOL     OW10959   1.017   3.916   2.749  0.4811 -0.5601 -0.0759
 3173SOL    HW110960   1.070   3.866   2.686 -1.9205 -2.5351 -0.6893
 3173SOL    HW210961   0.961   3.970   2.694  0.1727 -0.3132  0.4805
 3174SOL     OW10962   7.906   4.121   5.471 -0.6312 -0.0948  0.0196
 3174SOL    HW110963   7.815   4.137   5.496 -1.1547 -0.2299 -1.6371
 3174SOL    HW210964   7.914   4.026   5.468 -0.5972 -0.0825 -0.3600
 3175SOL     OW10965   1.648   6.831   3.507  0.2968  0.1134 -0.4069
 3175SOL    HW110966   1.614   6.883   3.580 -1.8072  0.8140 -1.7799
 3175SOL    HW210967   1.728   6.791   3.541 -0.0289  1.2534  1.9124
 3176SOL     OW10968   0.279   3.570   2.632  0.0384 -0.7306  0.1531
 3176SOL    HW110969   0.365   3.602   2.659  0.2824 -2.3571  1.4782
 3176SOL    HW210970   0.285   3.475   2.642 -2.4517 -0.7905  2.0424
 3177SOL     OW10971   1.663   4.661   0.502  0.3827 -0.1072  0.5682
 3177SOL    HW110972   1.728   4.729   0.486 -1.0318  0.6363 -2.7141
 3177SOL    HW210973   1.592   4.706   0.546  0.6684 -0.1677  1.1029
 3178SOL     OW10974   0.083   3.438   0.810  0.2648 -0.0601 -0.4030
 3178SOL    HW110975   0.145   3.379   0.768 -1.2168 -1.7515 -0.3005
 3178SOL    HW210976   0.008   3.441   0.751 -0.5085  0.1053  0.5586
 3179SOL     OW10977   7.643   6.022   2.556  0.2049 -0.6077  0.1075
 3179SOL    HW110978   7.625   6.018   2.650  2.0295  0.4944  0.5478
 3179SOL    HW210979   7.665   6.114   2.539  0.2779 -0.8648 -1.3181
 3180SOL     OW10980   7.579   4.838   3.813  0.1547 -0.2530 -0.6082
 3180SOL    HW110981   7.611   4.827   3.723 -0.2710  0.1973 -0.8180
 3180SOL    HW210982   7.575   4.933   3.826  0.5172 -0.3144  0.0009
 3181SOL     OW10983   7.918   4.659   5.175 -0.1096 -0.3359  0.3086
 3181SOL    HW110984   8.008   4.677   5.148  0.5286 -0.8593  1.9683
 3181SOL    HW210985   7.904   4.716   5.250 -1.1149 -0.3827  0.1683
 3182SOL     OW10986   2.228   4.245   4.163 -0.5979  0.1227 -0.5294
 3182SOL    HW110987   2.288   4.204   4.101 -0.7651 -0.9740  0.0149
 3182SOL    HW210988   2.148   4.259   4.112 -0.2656  0.5422 -0.9446
 3183SOL     OW10989   7.462   7.122   2.454  0.5109  0.3358  0.4397
 3183SOL    HW110990   7.500   7.142   2.540 -0.1977 -2.1622  1.4331
 3183SOL    HW210991   7.492   7.033   2.435 -0.0934  0.5025 -1.5061
 3184SOL     OW10992   6.754   5.665   2.803  0.8163  1.0076  0.6021
 3184SOL    HW110993   6.788   5.608   2.872  0.7640 -0.8805 -0.8391
 3184SOL    HW210994   6.659   5.657   2.810  0.8147  0.4088  0.0394
 3185SOL     OW10995   0.258   4.349   1.198 -0.7026 -0.5159  0.1892
 3185SOL    HW110996   0.293   4.292   1.130  2.7843  0.9513  0.5313
 3185SOL    HW210997   0.216   4.421   1.150 -2.4560 -1.7886 -0.2620
 3186SOL     OW10998   0.005   5.653   3.840  0.0888  0.0018 -0.1175
 3186SOL    HW110999  -0.030   5.727   3.789 -0.3592 -0.1111  0.0211
 3186SOL    HW211000   0.007   5.685   3.930  1.4246  0.4011 -0.2673
 3187SOL     OW11001   6.913   4.240   2.402  0.5212  0.3475  0.2323
 3187SOL    HW111002   7.004   4.213   2.414 -0.1175 -1.9908  0.2930
 3187SOL    HW211003   6.891   4.212   2.313  0.0964  1.7413 -0.1332
 3188SOL     OW11004   7.713   3.838   4.454 -0.1817  0.0907  0.1380
 3188SOL    HW111005   7.747   3.898   4.520 -1.1778 -1.2783  2.0219
 3188SOL    HW211006   7.708   3.754   4.499 -0.8687 -0.9338 -1.7295
 3189SOL     OW11007   1.493   4.716   3.076  0.4776 -0.3968  1.0052
 3189SOL    HW111008   1.416   4.758   3.038  0.6128 -0.8978  0.1624
 3189SOL    HW211009   1.567   4.752   3.027  0.6167 -1.3895  0.4710
 3190SOL     OW11010   0.607   3.834   2.006  0.0719 -0.1917 -0.3752
 3190SOL    HW111011   0.614   3.929   2.015 -1.3349 -0.2230  2.2516
 3190SOL    HW211012   0.515   3.819   1.987  0.6833 -1.0026 -3.0847
 3191SOL     OW11013   0.980   3.966   3.832 -0.5126 -0.0915 -0.3070
 3191SOL    HW111014   0.974   3.940   3.924  2.6526 -1.5728 -0.3726
 3191SOL    HW211015   0.953   3.888   3.784 -2.8153  0.8984 -0.7170
 3192SOL     OW11016   6.852   4.789   0.970  0.2186  0.2185 -0.1723
 3192SOL    HW111017   6.810   4.874   0.957  0.3105  0.3002  0.0654
 3192SOL    HW211018   6.929   4.792   0.912 -0.3127 -0.0830 -0.9047
 3193SOL     OW11019   0.335   2.885   3.347  0.0245 -0.2223 -0.1407
 3193SOL    HW111020   0.295   2.842   3.422 -0.4150  0.1861 -0.1325
 3193SOL    HW211021   0.345   2.976   3.374 -0.0308 -0.0973 -0.5327
 3194SOL     OW11022   0.680   5.061   4.245  0.1025  0.6052  0.0631
 3194SOL    HW111023   0.662   5.138   4.192  0.7764  0.2974 -0.6388
 3194SOL    HW211024   0.775   5.050   4.241  0.2115  0.7908  1.6692
 3195SOL     OW11025   1.802   4.681   2.443 -0.2384  0.2274 -0.2361
 3195SOL    HW111026   1.745   4.699   2.369 -1.6313 -1.3698  0.3870
 3195SOL    HW211027   1.839   4.595   2.425  0.4752  0.4044  0.3088
 3196SOL     OW11028   2.084   3.616   3.163 -0.1535  0.0565 -0.4565
 3196SOL    HW111029   2.029   3.609   3.240  1.8821 -3.7237  0.8981
 3196SOL    HW211030   2.023   3.626   3.090 -2.3141  0.2236  1.2759
 3197SOL     OW11031   1.129   3.427   3.240 -0.3352  0.2288  1.2865
 3197SOL    HW111032   1.097   3.510   3.203  0.3184  0.0281  0.2357
 3197SOL    HW211033   1.224   3.431   3.230 -0.3041 -0.6857  1.1648
 3198SOL     OW11034   7.975   3.655   3.260 -0.1871 -0.1300 -0.2690
 3198SOL    HW111035   7.932   3.710   3.325 -0.0742 -0.7036  0.2997
 3198SOL    HW211036   7.917   3.580   3.248  0.4963 -0.7742  0.2985
 3199SOL     OW11037   4.140   6.286   3.366 -0.1378  0.6714 -0.2500
 3199SOL    HW111038   4.158   6.256   3.277  0.8891  0.7524 -0.0840
 3199SOL    HW211039   4.214   6.343   3.388 -0.2758  0.5038  0.7176
 3200SOL     OW11040   3.579   4.952   2.354 -0.2295 -0.0865  0.2583
 3200SOL    HW111041   3.538   4.872   2.321 -0.7955  0.7973 -1.2791
 3200SOL    HW211042   3.507   5.001   2.394 -0.4783  0.8755 -1.2837
 3201SOL     OW11043   0.002   4.310   1.567  0.1501 -0.5179 -0.0149
 3201SOL    HW111044  -0.064   4.247   1.596  0.7023 -1.3749 -0.6156
 3201SOL    HW211045   0.008   4.298   1.473  1.7384 -1.0168  0.1291
 3202SOL     OW11046   7.976   4.656   3.216  1.3011 -0.2478 -0.1889
 3202SOL    HW111047   7.963   4.585   3.154 -0.2560 -0.2266  0.0626
 3202SOL    HW211048   8.043   4.623   3.277  2.1336 -0.6382 -1.2833
 3203SOL     OW11049   0.764   2.054   1.983 -0.2488 -0.7887  0.5717
 3203SOL    HW111050   0.824   1.980   1.970 -1.3837 -1.9520  1.6357
 3203SOL    HW211051   0.822   2.131   1.986  1.2849 -1.9086  2.0605
 3204SOL     OW11052   2.921   5.060   3.954 -0.4525 -0.0612  0.2758
 3204SOL    HW111053   3.008   5.054   3.992  0.3742 -2.1340 -1.7489
 3204SOL    HW211054   2.888   4.970   3.955 -0.9131  0.0067 -2.5396
 3205SOL     OW11055   0.817   4.252   4.154  0.4927  0.2401  0.3948
 3205SOL    HW111056   0.908   4.282   4.155  0.3045  0.8923  2.0987
 3205SOL    HW211057   0.771   4.316   4.209 -0.8854 -0.3993  0.0176
 3206SOL     OW11058   0.998   4.283   2.615 -0.1109 -0.8413 -0.8642
 3206SOL    HW111059   0.939   4.337   2.562  1.0343 -0.4196 -1.7449
 3206SOL    HW211060   1.056   4.346   2.659  0.5329 -1.3033 -1.0396
 3207SOL     OW11061   7.395   5.441   3.104 -0.3625  0.2216 -0.2491
 3207SOL    HW111062   7.332   5.465   3.172 -0.9760  0.4216 -0.8786
 3207SOL    HW211063   7.374   5.350   3.083 -0.0150  0.0825 -0.0066
 3208SOL     OW11064   1.459   5.521   1.820  0.2788  0.0930  0.1174
 3208SOL    HW111065   1.546   5.562   1.827 -0.3063  1.3336  0.5184
 3208SOL    HW211066   1.459   5.453   1.887  0.2386  1.4834  1.6019
 3209SOL     OW11067   0.047   5.954   3.449 -0.4685 -0.2775  0.0082
 3209SOL    HW111068  -0.002   6.035   3.464  0.0831 -0.2438  1.7919
 3209SOL    HW211069   0.134   5.972   3.483  0.4316 -0.8071 -1.8802
 3210SOL     OW11070   2.198   3.814   3.799  0.2283  0.1981 -0.2980
 3210SOL    HW111071   2.174   3.723   3.814  0.1879  0.2702  0.0814
 3210SOL    HW211072   2.200   3.853   3.886  2.3428  0.0473 -0.2194
 3211SOL     OW11073   0.209   6.768   2.960 -0.4234  0.3392 -0.0587
 3211SOL    HW111074   0.210   6.690   3.017 -0.1079 -0.6194 -1.3334
 3211SOL    HW211075   0.191   6.841   3.020  0.8929 -0.4981  1.4326
 3212SOL     OW11076   1.953   5.819   2.374 -0.7376 -0.3540  0.2661
 3212SOL    HW111077   1.921   5.868   2.450  0.1384 -0.6231  0.8228
 3212SOL    HW211078   1.941   5.727   2.397 -0.3916 -0.4393  0.1172
 3213SOL     OW11079   0.102   3.999   4.435 -0.1560 -0.1802  0.1489
 3213SOL    HW111080   0.150   3.918   4.454  0.3809 -0.0347 -0.5513
 3213SOL    HW211081   0.074   4.031   4.521  2.1098  0.4146  0.7376
 3214SOL     OW11082   1.132   3.964   0.997 -0.4320 -0.0391 -0.0473
 3214SOL    HW111083   1.143   3.888   1.053  1.3873 -0.1705 -0.5449
 3214SOL    HW211084   1.073   3.934   0.928  1.5400 -1.5701 -1.1637
 3215SOL     OW11085   2.510   5.834   2.243 -0.2408 -0.2563  0.1400
 3215SOL    HW111086   2.437   5.848   2.182 -0.0228  1.7610  0.2741
 3215SOL    HW211087   2.583   5.809   2.187 -0.3785  0.3106 -0.3068
 3216SOL     OW11088   7.564   5.156   2.698 -0.1379 -0.1086 -0.3623
 3216SOL    HW111089   7.636   5.179   2.639  0.6978 -0.3910  0.5279
 3216SOL    HW211090   7.495   5.124   2.640 -0.1625  1.6327 -1.3726
 3217SOL     OW11091   1.297   4.829   2.081  0.2444 -0.3420 -0.2220
 3217SOL    HW111092   1.288   4.734   2.088 -0.2486 -0.3609 -1.0833
 3217SOL    HW211093   1.216   4.863   2.118 -0.2384 -0.3061 -1.2908
 3218SOL     OW11094   3.587   5.038   2.070  0.3277 -1.0158  0.2725
 3218SOL    HW111095   3.495   5.024   2.046  0.2005  0.4373 -0.1532
 3218SOL    HW211096   3.595   4.997   2.156 -1.0310 -0.1716  0.8403
 3219SOL     OW11097   1.844   2.472   3.338  0.5996  0.1103 -0.0358
 3219SOL    HW111098   1.873   2.550   3.290  1.8343 -0.1041  0.3248
 3219SOL    HW211099   1.854   2.496   3.430  0.3670 -0.2538  0.0866
 3220SOL     OW11100   1.165   0.501   3.970 -0.0524 -0.0496 -0.0737
 3220SOL    HW111101   1.132   0.538   3.888 -0.0873 -1.4854 -0.7386
 3220SOL    HW211102   1.197   0.577   4.019 -0.9722  0.9558 -0.9673
 3221SOL     OW11103   0.522   4.940   3.186 -0.3315  0.2157 -0.1945
 3221SOL    HW111104   0.443   4.909   3.231  0.2608 -0.3670  0.4821
 3221SOL    HW211105   0.505   5.033   3.170 -1.1760  0.0894 -0.1135
 3222SOL     OW11106   0.889   5.502   2.593 -0.1046 -0.2133 -0.2964
 3222SOL    HW111107   0.936   5.582   2.569  0.3374 -0.2352  0.4540
 3222SOL    HW211108   0.801   5.532   2.615  0.0842  0.0877  0.0745
 3223SOL     OW11109   0.352   5.168   2.465  0.4911  0.1427  0.5074
 3223SOL    HW111110   0.358   5.110   2.540  1.1575 -0.6374 -0.1311
 3223SOL    HW211111   0.408   5.243   2.488  0.1615  0.2261  1.0517
 3224SOL     OW11112   0.647   1.909   5.737  0.7513 -0.5634 -0.4759
 3224SOL    HW111113   0.570   1.867   5.698  0.1100 -0.4534  0.6372
 3224SOL    HW211114   0.722   1.865   5.696  0.1209 -0.4736 -1.7954
 3225SOL     OW11115   1.027   4.976   2.510  0.2487 -0.6854 -0.5707
 3225SOL    HW111116   1.110   4.976   2.557  0.4726 -0.3238 -0.9632
 3225SOL    HW211117   0.990   5.063   2.527  0.3813 -0.5113 -1.1459
 3226SOL     OW11118   1.779   5.794   3.977  0.4805 -0.5088 -0.2496
 3226SOL    HW111119   1.717   5.721   3.974  0.0750 -0.2026  0.4274
 3226SOL    HW211120   1.774   5.834   3.890 -0.4087 -0.3794 -0.1421
 3227SOL     OW11121   0.978   5.135   3.229 -0.0790  0.2874  0.4800
 3227SOL    HW111122   0.982   5.158   3.137 -0.5554  0.6847  0.5576
 3227SOL    HW211123   1.015   5.047   3.234 -0.3673  0.1337 -0.1333
 3228SOL     OW11124   7.575   4.392   3.074  0.3365  0.3731  0.2750
 3228SOL    HW111125   7.644   4.325   3.074  0.3130  0.3030 -1.3100
 3228SOL    HW211126   7.621   4.472   3.047  0.0985  0.6984  0.8239
 3229SOL     OW11127   1.037   3.647   3.096 -0.1778 -0.0740 -0.4934
 3229SOL    HW111128   0.949   3.662   3.131 -0.3001 -0.1630 -0.7569
 3229SOL    HW211129   1.024   3.585   3.024  0.4862 -2.6604  1.4942
 3230SOL     OW11130   2.283   4.078   1.896  0.0625  0.4317 -0.5114
 3230SOL    HW111131   2.221   4.079   1.969  0.4844  0.6334 -0.1493
 3230SOL    HW211132   2.315   3.988   1.893  0.4550  0.5527 -0.0895
 3231SOL     OW11133   0.592   3.762   4.776  0.1854  0.4297 -0.0384
 3231SOL    HW111134   0.575   3.853   4.753  0.5229  0.4863 -0.0793
 3231SOL    HW211135   0.565   3.712   4.699 -1.4370  0.3474  0.5515
 3232SOL     OW11136   2.222   5.934   2.800 -0.0801  0.5371  0.3016
 3232SOL    HW111137   2.218   5.959   2.707  1.8923 -0.1757 -0.0226
 3232SOL    HW211138   2.232   6.017   2.846 -0.4507  0.8518 -0.1731
 3233SOL     OW11139   1.865   5.583   5.185 -0.0397  0.2155 -0.7584
 3233SOL    HW111140   1.946   5.630   5.206 -0.8148  0.7673  1.2544
 3233SOL    HW211141   1.807   5.650   5.149 -0.6239  0.5352  0.6988
 3234SOL     OW11142   1.363   2.615   2.119  0.2372  0.0146 -0.2218
 3234SOL    HW111143   1.407   2.646   2.199 -0.7356  0.0126  0.3347
 3234SOL    HW211144   1.415   2.540   2.090  1.2028  0.6474 -0.1867
 3235SOL     OW11145   0.455   4.253   2.983  0.4084 -0.6664  0.4103
 3235SOL    HW111146   0.449   4.347   3.000  0.4616 -0.3070 -1.3449
 3235SOL    HW211147   0.364   4.224   2.974  0.3904 -0.8000  0.9918
 3236SOL     OW11148   7.611   5.096   0.924  0.5161  0.4897 -0.0805
 3236SOL    HW111149   7.578   5.071   1.010 -1.5279  2.7583 -0.1058
 3236SOL    HW211150   7.576   5.030   0.865  3.0437 -1.8961  0.8474
 3237SOL     OW11151   1.158   3.355   2.195  0.1503 -0.1703  0.0205
 3237SOL    HW111152   1.098   3.287   2.166  0.6983 -0.6004 -0.1372
 3237SOL    HW211153   1.245   3.317   2.180  0.4695  0.7772 -0.5710
 3238SOL     OW11154   2.195   3.671   4.925 -0.0753  0.1260  0.0059
 3238SOL    HW111155   2.215   3.679   4.831  1.1058  1.4422  0.3326
 3238SOL    HW211156   2.103   3.642   4.927 -0.6772  1.7013 -1.5711
 3239SOL     OW11157   1.667   6.553  11.958  0.0976  0.4753 -0.2725
 3239SOL    HW111158   1.749   6.539  12.006  1.1801  2.9344 -1.2669
 3239SOL    HW211159   1.629   6.465  11.949  1.6198 -0.4709  1.9206
 3240SOL     OW11160   0.594   6.069   3.619 -0.0720 -0.0663  0.2100
 3240SOL    HW111161   0.600   6.164   3.627 -0.0423 -0.0707  0.2415
 3240SOL    HW211162   0.676   6.044   3.576 -1.7408  0.3409 -3.6598
 3241SOL     OW11163   7.707   5.605   2.087 -0.5085 -0.6218 -0.1185
 3241SOL    HW111164   7.737   5.526   2.133 -0.9959 -0.6872  0.0973
 3241SOL    HW211165   7.717   5.675   2.151 -0.9619 -0.6718  0.0091
 3242SOL     OW11166   2.352   5.208   1.602 -0.1314 -0.1862 -0.1225
 3242SOL    HW111167   2.328   5.145   1.670 -1.3781 -1.6276 -1.7900
 3242SOL    HW211168   2.273   5.261   1.590  1.0469  2.1343  1.5891
 3243SOL     OW11169   3.337   0.083   2.396 -0.5254  0.3293 -0.5169
 3243SOL    HW111170   3.244   0.072   2.417 -0.5254 -2.1525 -1.4231
 3243SOL    HW211171   3.337   0.122   2.309 -0.7765 -0.5669 -0.9339
 3244SOL     OW11172   7.346   4.294   4.043  0.1548 -0.1335 -0.4550
 3244SOL    HW111173   7.288   4.369   4.055  0.5774  0.0435  0.5715
 3244SOL    HW211174   7.398   4.291   4.123  2.7080  0.7036 -1.9482
 3245SOL     OW11175   3.035   4.502   4.276  0.1496 -0.3524 -0.1284
 3245SOL    HW111176   3.121   4.538   4.298  0.3269 -1.3434  0.8688
 3245SOL    HW211177   3.032   4.418   4.320 -1.6485  0.0044  0.5033
 3246SOL     OW11178   7.992   5.980   2.702 -0.0459  0.1099  0.4563
 3246SOL    HW111179   7.964   6.062   2.743  0.6215  0.8474 -0.5058
 3246SOL    HW211180   7.936   5.913   2.741 -1.6641  1.2255  0.1628
 3247SOL     OW11181   1.070   3.494   0.505  0.3817  0.0303 -0.0396
 3247SOL    HW111182   0.991   3.501   0.450  1.2140  2.7965 -1.0731
 3247SOL    HW211183   1.140   3.473   0.443  1.0315  1.3039  0.2333
 3248SOL     OW11184   0.961   5.223   2.612  0.0713  0.3844  0.1096
 3248SOL    HW111185   0.965   5.305   2.563 -1.8263  0.5653  0.1722
 3248SOL    HW211186   0.916   5.246   2.693 -0.2863 -0.6609  0.2209
 3249SOL     OW11187   2.182   4.211   3.523 -0.0207  0.0668 -0.2911
 3249SOL    HW111188   2.192   4.297   3.562 -2.5007 -0.8103  2.7409
 3249SOL    HW211189   2.201   4.224   3.430  1.0143  3.5374  0.2680
 3250SOL     OW11190   0.663   4.958   5.708 -0.0061 -0.1792 -0.5043
 3250SOL    HW111191   0.648   4.866   5.688  0.4679 -0.3103 -0.2689
 3250SOL    HW211192   0.585   5.003   5.675 -0.7606 -0.7981  0.3771
 3251SOL     OW11193   0.784   5.373   3.724  0.8325  0.2234 -0.2888
 3251SOL    HW111194   0.698   5.360   3.762  0.9201  0.9301  0.1732
 3251SOL    HW211195   0.784   5.321   3.644  0.3019 -0.5049  0.1742
 3252SOL     OW11196   6.921   4.524   2.234 -0.6597  0.3910 -0.1197
 3252SOL    HW111197   6.835   4.523   2.277 -1.1223  1.9791 -0.9471
 3252SOL    HW211198   6.939   4.432   2.214 -2.6291  0.1315 -0.8393
 3253SOL     OW11199   0.879   3.323   2.782  0.1416  0.3155 -0.7611
 3253SOL    HW111200   0.943   3.313   2.852 -0.9921 -0.0588  0.2656
 3253SOL    HW211201   0.800   3.282   2.817 -0.7267  0.9910 -1.8858
 3254SOL     OW11202   1.538   4.791   3.364  0.0306 -0.0288 -0.2592
 3254SOL    HW111203   1.538   4.745   3.279  1.0881 -0.1465 -0.1994
 3254SOL    HW211204   1.466   4.854   3.356  0.5958  0.5064 -1.5471
 3255SOL     OW11205   1.315   4.747   1.638  0.0878 -0.1799 -0.0380
 3255SOL    HW111206   1.342   4.723   1.550 -1.7346  0.0488 -0.6943
 3255SOL    HW211207   1.285   4.664   1.677 -0.4203 -0.0402 -0.1305
 3256SOL     OW11208   1.330   3.897   3.660 -0.0773 -0.2254 -0.6430
 3256SOL    HW111209   1.323   3.861   3.749 -1.5042 -0.2044 -0.7216
 3256SOL    HW211210   1.299   3.987   3.668  1.9849  0.5490 -0.7551
 3257SOL     OW11211   0.132   3.653   2.399 -0.2149  0.5264 -0.2474
 3257SOL    HW111212   0.048   3.671   2.441  0.1362  1.4199  0.0994
 3257SOL    HW211213   0.178   3.596   2.460 -0.8939 -0.7169 -0.8416
 3258SOL     OW11214   1.676   3.941   1.282  0.2203  0.3357 -0.4157
 3258SOL    HW111215   1.622   3.902   1.350 -0.9224  2.5142  0.0314
 3258SOL    HW211216   1.614   3.965   1.213  1.1336 -0.3233 -1.4866
 3259SOL     OW11217   0.794   5.144   2.220 -0.6450  0.2296 -0.0762
 3259SOL    HW111218   0.776   5.084   2.293 -0.3848  1.6757  1.2192
 3259SOL    HW211219   0.887   5.165   2.228 -0.8074  1.0760 -0.3088
 3260SOL     OW11220   7.056   4.598   2.897 -0.0299 -0.5471 -0.0683
 3260SOL    HW111221   7.126   4.541   2.931 -1.9019 -2.1750  1.3166
 3260SOL    HW211222   6.982   4.539   2.886 -2.1785  1.6548  1.6682
 3261SOL     OW11223   7.887   3.284   1.830 -0.3516 -0.4190  0.1727
 3261SOL    HW111224   7.794   3.289   1.850 -0.8206  1.9858 -2.1811
 3261SOL    HW211225   7.895   3.312   1.739  2.6881 -0.6289  0.2483
 3262SOL     OW11226   0.717   4.483   3.725 -0.0672 -0.1137 -0.6609
 3262SOL    HW111227   0.716   4.540   3.649 -2.2776 -0.2886 -0.8240
 3262SOL    HW211228   0.704   4.395   3.689 -0.8703 -0.2248 -0.1359
 3263SOL     OW11229   7.808   3.475   3.178  1.0917  0.4505  0.0826
 3263SOL    HW111230   7.721   3.486   3.138  1.1830 -1.3591 -0.7084
 3263SOL    HW211231   7.810   3.384   3.205  2.5973  0.5923  0.5261
 3264SOL     OW11232   0.201   4.851   5.212 -0.1441 -0.0081  0.0204
 3264SOL    HW111233   0.187   4.772   5.264  0.7670  1.2818  2.3584
 3264SOL    HW211234   0.186   4.923   5.273 -0.9982  1.6769 -2.0405
 3265SOL     OW11235   3.791   6.304   3.834 -0.6525 -0.0936  0.3854
 3265SOL    HW111236   3.725   6.355   3.787 -0.2087  1.3280  1.2448
 3265SOL    HW211237   3.856   6.281   3.768 -0.9561  0.2862 -0.0488
 3266SOL     OW11238   1.539   5.011   4.256 -0.3976  0.1633  0.3030
 3266SOL    HW111239   1.464   5.039   4.205  0.9680  2.2981 -0.7054
 3266SOL    HW211240   1.591   5.091   4.268  2.6530 -1.5036 -0.6907
 3267SOL     OW11241   1.553   4.320   4.055 -0.2996  0.3361  0.2112
 3267SOL    HW111242   1.544   4.405   4.096  0.9221  0.2842  0.6146
 3267SOL    HW211243   1.586   4.339   3.967  0.6149  0.2590  0.5278
 3268SOL     OW11244   7.850   5.236   4.328  0.1950  0.0735  0.5787
 3268SOL    HW111245   7.899   5.155   4.341 -0.4931 -0.1589  1.8472
 3268SOL    HW211246   7.796   5.218   4.251  0.1367 -0.6259  0.7736
 3269SOL     OW11247   2.805   3.320   6.436  0.1851 -0.2985 -0.0152
 3269SOL    HW111248   2.854   3.355   6.510  0.0207  1.2708 -0.6006
 3269SOL    HW211249   2.727   3.281   6.474 -0.2250  1.0854  0.6128
 3270SOL     OW11250   7.342   5.636   4.310  0.1195 -0.4536  0.4469
 3270SOL    HW111251   7.255   5.597   4.317 -0.8248  1.5201  0.5035
 3270SOL    HW211252   7.368   5.652   4.401  0.2125 -0.3692  0.4060
 3271SOL     OW11253   1.066   5.983   4.928  0.0749  0.5973  0.6142
 3271SOL    HW111254   1.157   5.994   4.902 -0.6762  0.0922 -2.7161
 3271SOL    HW211255   1.055   5.888   4.940  0.0212  0.6828  1.3182
 3272SOL     OW11256   2.280   4.858   3.401  0.2203  0.1616  0.1077
 3272SOL    HW111257   2.281   4.947   3.367 -1.5502  0.1111 -0.1375
 3272SOL    HW211258   2.369   4.826   3.387  0.3753  1.2371 -1.5547
 3273SOL     OW11259   0.418   4.764   5.739  0.2659 -0.2388 -0.2341
 3273SOL    HW111260   0.413   4.858   5.756 -1.0076 -0.3399  0.0774
 3273SOL    HW211261   0.416   4.724   5.826  0.1654 -0.5680 -0.3868
 3274SOL     OW11262   0.133   5.049   5.716  0.3936 -0.3651  0.4358
 3274SOL    HW111263   0.107   4.988   5.785 -1.7180 -0.3755 -0.3076
 3274SOL    HW211264   0.052   5.067   5.668  1.3611  1.4346 -0.6256
 3275SOL     OW11265   0.697   4.211   2.873  0.1553  0.3201  0.4485
 3275SOL    HW111266   0.692   4.120   2.846 -1.3637  0.3576  0.4973
 3275SOL    HW211267   0.619   4.225   2.926  0.6443  1.5049  0.9015
 3276SOL     OW11268   7.068   4.599   6.024 -0.5304  0.9880  0.8472
 3276SOL    HW111269   7.072   4.505   6.002 -0.6466  1.2348 -0.2981
 3276SOL    HW211270   6.975   4.620   6.018 -0.2774  1.8024 -1.8941
 3277SOL     OW11271   1.807   4.432   4.302 -0.2317 -0.7815 -0.0897
 3277SOL    HW111272   1.737   4.456   4.241 -2.4323 -1.6425  1.9414
 3277SOL    HW211273   1.770   4.448   4.389  2.1324 -1.2697  1.0952
 3278SOL     OW11274   6.878   5.092   4.641 -0.5588 -0.2014  0.2051
 3278SOL    HW111275   6.808   5.106   4.706 -0.3525 -0.6813  0.5411
 3278SOL    HW211276   6.834   5.049   4.568 -1.0150  1.3287 -0.4603
 3279SOL     OW11277   2.784   5.197   3.753 -0.6963  0.1756  0.1541
 3279SOL    HW111278   2.834   5.160   3.826 -1.3176 -0.0117  0.4836
 3279SOL    HW211279   2.784   5.128   3.687 -1.1995 -0.1217  0.4663
 3280SOL     OW11280   1.407   5.971   5.299  0.1964 -0.1580  0.3090
 3280SOL    HW111281   1.475   6.037   5.313  1.2960 -1.3158  0.5551
 3280SOL    HW211282   1.438   5.921   5.224 -1.0586  0.1284 -0.4245
 3281SOL     OW11283   7.769   4.101   1.926  0.1566 -0.0638 -0.3506
 3281SOL    HW111284   7.804   4.188   1.907 -1.6273  0.6043 -0.7794
 3281SOL    HW211285   7.681   4.101   1.887 -0.7258 -1.2916  1.4840
 3282SOL     OW11286   1.832   3.453   6.275  0.8306  0.6859 -0.2453
 3282SOL    HW111287   1.913   3.409   6.247  1.4541  2.2707 -1.0785
 3282SOL    HW211288   1.857   3.545   6.283 -0.9622  1.2623 -0.8051
 3283SOL     OW11289   7.810   4.613   3.637  0.7582 -0.0395  0.0960
 3283SOL    HW111290   7.879   4.658   3.685 -0.8331  1.2861  1.2295
 3283SOL    HW211291   7.734   4.616   3.694 -1.1752  1.3576 -2.3373
 3284SOL     OW11292   1.752   6.583   3.375 -0.2076 -0.2975  0.3933
 3284SOL    HW111293   1.788   6.515   3.433  0.5481  0.2937  0.6410
 3284SOL    HW211294   1.817   6.592   3.306 -0.3488  0.1001  0.3119
 3285SOL     OW11295   7.202   4.951   3.187  0.1142 -0.1392  0.2532
 3285SOL    HW111296   7.167   4.926   3.102 -1.2107 -0.1838  0.7978
 3285SOL    HW211297   7.129   4.941   3.248  0.7483  0.8794  1.2295
 3286SOL     OW11298   1.871   5.070   4.341 -0.1353 -0.1139  0.1007
 3286SOL    HW111299   1.852   5.133   4.410 -0.6500  1.3767 -1.3237
 3286SOL    HW211300   1.834   5.109   4.262 -2.9819 -3.4787 -0.4717
 3287SOL     OW11301   0.026   3.230   2.961  0.4055 -0.0723  0.5505
 3287SOL    HW111302   0.054   3.235   3.053 -3.3622 -1.7716  2.0065
 3287SOL    HW211303   0.004   3.321   2.938 -1.9874  0.0055  2.6752
 3288SOL     OW11304   6.461   3.711   5.590 -0.8285  0.1093 -0.1246
 3288SOL    HW111305   6.498   3.728   5.503  0.5785 -0.9600  0.2274
 3288SOL    HW211306   6.527   3.744   5.651 -0.2802 -2.0481  0.5181
 3289SOL     OW11307   6.107   3.526   3.944  0.1520  0.0620  0.2777
 3289SOL    HW111308   6.025   3.571   3.922 -1.0125 -2.6914 -1.5940
 3289SOL    HW211309   6.080   3.457   4.004  0.6560 -2.1146 -1.8647
 3290SOL     OW11310   1.776   5.511   3.515  0.5025  0.4602  0.4270
 3290SOL    HW111311   1.845   5.549   3.461 -0.7914  1.9623 -0.2589
 3290SOL    HW211312   1.821   5.486   3.596  1.8390  1.5214  0.0599
 3291SOL     OW11313   0.856   4.285   4.560 -0.2140  0.0985 -1.0709
 3291SOL    HW111314   0.818   4.361   4.605  0.2482  0.0321 -0.5570
 3291SOL    HW211315   0.790   4.260   4.496 -1.8865 -1.1410  1.0184
 3292SOL     OW11316   7.337   4.042   3.987  0.7912  0.1169  0.3391
 3292SOL    HW111317   7.284   4.033   3.907  0.8663 -1.6857  0.4598
 3292SOL    HW211318   7.342   4.136   4.001 -0.1637  0.4324 -1.1633
 3293SOL     OW11319   0.515   5.319   4.736  0.0351  0.2063  0.3583
 3293SOL    HW111320   0.427   5.287   4.716  0.3181 -1.1601  1.1368
 3293SOL    HW211321   0.512   5.340   4.829  1.1642 -2.3179  1.0647
 3294SOL     OW11322   7.571   4.876   6.161 -0.0716 -0.3758  0.4700
 3294SOL    HW111323   7.502   4.813   6.180  0.3080 -1.1623 -0.7073
 3294SOL    HW211324   7.615   4.889   6.246 -1.7186  0.2570  1.2725
 3295SOL     OW11325   1.145   5.281   4.880  0.1159 -0.0359 -0.2536
 3295SOL    HW111326   1.239   5.290   4.867 -0.0635  0.9808 -0.9824
 3295SOL    HW211327   1.135   5.268   4.975  0.7835  3.9523  0.5496
 3296SOL     OW11328   1.418   4.876   3.916  0.2937  0.5800 -0.1465
 3296SOL    HW111329   1.331   4.865   3.955  0.5417 -0.2022  0.1876
 3296SOL    HW211330   1.479   4.850   3.984  0.8725  2.5974  0.1506
 3297SOL     OW11331   1.503   7.298   2.876  0.5150 -0.1695 -0.6877
 3297SOL    HW111332   1.457   7.377   2.845 -0.1591 -1.2681 -2.6054
 3297SOL    HW211333   1.595   7.324   2.881 -0.0075  1.5922  1.6486
 3298SOL     OW11334   0.535   5.335   3.345 -0.2778 -0.4342 -0.5088
 3298SOL    HW111335   0.585   5.318   3.265 -1.0059  1.0882 -1.3411
 3298SOL    HW211336   0.457   5.280   3.336 -0.3443 -0.2922 -0.8393
 3299SOL     OW11337   1.251   4.725   4.582 -0.1216 -0.6705 -0.3409
 3299SOL    HW111338   1.229   4.781   4.507 -2.1207 -1.5858 -0.4917
 3299SOL    HW211339   1.195   4.649   4.573  0.3034 -1.2720  1.5652
 3300SOL     OW11340   4.277   6.261   4.083  0.0010  0.5092 -0.6483
 3300SOL    HW111341   4.313   6.196   4.144  0.7761  0.9372 -0.6360
 3300SOL    HW211342   4.244   6.331   4.139  0.8202  0.9580 -0.6976
 3301SOL     OW11343   1.328   5.401   5.160 -0.4557  0.0564 -0.0320
 3301SOL    HW111344   1.378   5.325   5.129  0.9084  1.0389 -0.3434
 3301SOL    HW211345   1.353   5.411   5.251 -2.7993 -1.5096  0.8741
 3302SOL     OW11346   1.272   3.540   5.592 -0.2909 -0.0394 -0.1727
 3302SOL    HW111347   1.196   3.513   5.643 -1.6687  0.0904 -2.0475
 3302SOL    HW211348   1.274   3.636   5.601 -1.6301  0.1796 -1.7175
 3303SOL     OW11349   1.613   4.795   4.126  0.4392 -0.0168  0.3878
 3303SOL    HW111350   1.677   4.818   4.058 -2.2728  1.2008 -1.9589
 3303SOL    HW211351   1.590   4.878   4.167  1.2013 -0.6049  2.0840
 3304SOL     OW11352   1.213   4.219   6.231 -0.2989  0.0987 -0.0297
 3304SOL    HW111353   1.265   4.298   6.212  0.6422 -0.9174 -2.0332
 3304SOL    HW211354   1.157   4.244   6.304 -0.5465  2.8680 -1.0388
 3305SOL     OW11355   1.707   5.939   4.206 -0.5032  0.2453 -0.3386
 3305SOL    HW111356   1.659   5.884   4.268 -2.1146  0.9122 -0.9291
 3305SOL    HW211357   1.719   5.883   4.129 -1.3570  0.4035 -0.6052
 3306SOL     OW11358   7.616   5.025   4.345 -0.3655  0.0716  0.1911
 3306SOL    HW111359   7.619   5.028   4.441 -0.1273 -0.5418  0.2079
 3306SOL    HW211360   7.529   5.059   4.323 -0.0034  1.3044  0.5571
 3307SOL     OW11361   0.302   6.820   4.169 -0.2283 -0.6683 -0.2389
 3307SOL    HW111362   0.238   6.891   4.160  2.0176  1.5756  0.1279
 3307SOL    HW211363   0.317   6.814   4.264  1.4764  0.2642 -0.4098
 3308SOL     OW11364   1.109   4.952   3.709 -0.3803  0.2908  0.4662
 3308SOL    HW111365   1.047   4.884   3.735 -0.2585 -0.2036 -0.4867
 3308SOL    HW211366   1.076   5.032   3.750  0.2638 -0.5667  2.8402
 3309SOL     OW11367   2.536   4.626   5.403  0.5062  0.1081  0.0928
 3309SOL    HW111368   2.480   4.558   5.364  1.8227 -1.7806  1.3449
 3309SOL    HW211369   2.535   4.697   5.339 -2.3131 -0.3296 -0.4875
 3310SOL     OW11370   1.920   5.603   4.508  0.2264  0.3394  0.2733
 3310SOL    HW111371   2.012   5.595   4.533 -0.3891 -2.8145  2.1375
 3310SOL    HW211372   1.873   5.616   4.591 -1.0707  1.9176 -0.6413
 3311SOL     OW11373   1.171   1.762   4.214  0.3414  0.6467  0.2261
 3311SOL    HW111374   1.201   1.832   4.272 -0.4570  1.0316  0.1902
 3311SOL    HW211375   1.233   1.762   4.141  1.9696 -0.5063  1.5406
 3312SOL     OW11376   1.228   3.832   4.492  0.2511 -0.4815 -0.7346
 3312SOL    HW111377   1.175   3.908   4.469  1.6588  0.1610 -2.0957
 3312SOL    HW211378   1.195   3.762   4.437  0.2300 -0.3202 -0.9281
 3313SOL     OW11379   7.992   3.869   5.390 -0.2744  0.0321 -0.1049
 3313SOL    HW111380   7.930   3.853   5.319 -0.4492 -0.0242  0.0594
 3313SOL    HW211381   8.078   3.859   5.350 -0.3624  0.6546 -0.4629
 3314SOL     OW11382   2.421   4.962   4.264 -0.0943  0.0914  0.2863
 3314SOL    HW111383   2.327   4.966   4.280  0.2228 -0.8074  2.8735
 3314SOL    HW211384   2.432   4.891   4.201 -1.2072  0.9555 -0.9169
 3315SOL     OW11385   1.382   4.622   5.420 -0.2314 -0.1333  0.7665
 3315SOL    HW111386   1.389   4.574   5.338 -0.9662 -2.2124  1.8497
 3315SOL    HW211387   1.362   4.712   5.394 -3.3421 -1.2672 -1.3109
 3316SOL     OW11388   5.557   1.712   2.638 -0.1458 -0.0719 -0.2285
 3316SOL    HW111389   5.501   1.781   2.674  0.9573  0.9769 -0.4417
 3316SOL    HW211390   5.499   1.636   2.628 -1.5018  0.9482 -0.3914
 3317SOL     OW11391   0.794   3.610   2.375  0.5852 -0.4287  0.0845
 3317SOL    HW111392   0.790   3.610   2.279  0.9381 -1.1839  0.0614
 3317SOL    HW211393   0.886   3.597   2.395  0.5868  0.2179  0.5376
 3318SOL     OW11394   7.761   4.209   4.288  0.3876 -0.0751 -0.2368
 3318SOL    HW111395   7.815   4.263   4.231  0.0277  0.9493  0.3655
 3318SOL    HW211396   7.717   4.272   4.346  0.0464 -1.0211  0.5556
 3319SOL     OW11397   1.276   5.153   1.996  0.4211  0.2011  0.4607
 3319SOL    HW111398   1.249   5.165   2.087 -0.6406 -1.9887  0.5066
 3319SOL    HW211399   1.194   5.154   1.946  0.8598 -0.0076 -0.2746
 3320SOL     OW11400   0.807   4.024   5.913 -0.8918  0.1532  0.0831
 3320SOL    HW111401   0.732   3.967   5.930 -2.2070  1.7596 -0.0482
 3320SOL    HW211402   0.832   4.057   6.000 -2.0834  1.6602 -0.0965
 3321SOL     OW11403   0.793   5.970   3.473  0.2527 -0.1845  0.1528
 3321SOL    HW111404   0.778   6.010   3.387  0.2903  0.7077  0.5503
 3321SOL    HW211405   0.888   5.960   3.478  0.1428 -1.8374 -0.6014
 3322SOL     OW11406   7.699   5.793   4.999 -0.3996  0.4204  0.2927
 3322SOL    HW111407   7.687   5.850   5.076 -2.0017  2.0489 -1.0720
 3322SOL    HW211408   7.692   5.704   5.034 -2.2257  1.1278  1.9063
 3323SOL     OW11409   2.247   4.435   3.664 -0.2595 -0.2447 -0.1263
 3323SOL    HW111410   2.342   4.450   3.661 -0.4535  1.4177  0.7311
 3323SOL    HW211411   2.212   4.513   3.707 -2.1558 -0.2713 -1.4964
 3324SOL     OW11412   1.169   7.710   4.563  0.2674 -0.6929 -0.0799
 3324SOL    HW111413   1.081   7.718   4.525 -0.0447  1.2855  0.9050
 3324SOL    HW211414   1.222   7.771   4.513  1.8128 -3.5777 -2.2969
 3325SOL     OW11415   0.170   4.595   5.349 -0.3145 -0.1260  0.1066
 3325SOL    HW111416   0.104   4.527   5.346  1.3928 -1.8541 -0.1614
 3325SOL    HW211417   0.214   4.581   5.433  0.2491  0.4687 -0.0842
 3326SOL     OW11418   0.815   5.084   4.732 -0.4267 -0.0885  0.3777
 3326SOL    HW111419   0.885   5.052   4.789 -0.4809 -0.8860  0.0049
 3326SOL    HW211420   0.746   5.018   4.740  0.0944 -0.9234 -1.6570
 3327SOL     OW11421   2.240   4.926   3.931 -0.3019  0.4438  0.4374
 3327SOL    HW111422   2.302   4.980   3.882 -0.3075  1.8810  1.9400
 3327SOL    HW211423   2.294   4.869   3.985 -0.2877 -1.4408 -1.4288
 3328SOL     OW11424   0.366   4.220   5.357 -0.6800 -0.7027  0.2668
 3328SOL    HW111425   0.407   4.289   5.409 -0.5224 -0.4970 -0.1232
 3328SOL    HW211426   0.400   4.138   5.394 -1.1173 -0.5891  0.9385
 3329SOL     OW11427   0.476   6.721   6.364 -0.1522  0.2689  0.4245
 3329SOL    HW111428   0.480   6.703   6.271  0.5853 -0.6319  0.6246
 3329SOL    HW211429   0.510   6.810   6.372  2.1102 -0.5153  0.0702
 3330SOL     OW11430   7.967   5.352   4.039 -0.1807 -0.3054  0.3876
 3330SOL    HW111431   7.951   5.302   3.959 -0.8636  1.2187 -0.4952
 3330SOL    HW211432   8.062   5.354   4.048 -0.0587  0.0294 -0.7745
 3331SOL     OW11433   7.799   1.972   5.651 -0.3638 -0.1465 -0.1936
 3331SOL    HW111434   7.879   1.930   5.620  0.2366  0.2824  0.7366
 3331SOL    HW211435   7.731   1.905   5.641  0.0297 -0.4070 -1.2930
 3332SOL     OW11436   6.737   3.776   3.305  0.4874 -0.5354  0.3736
 3332SOL    HW111437   6.667   3.720   3.270 -0.6733  0.6935  0.6360
 3332SOL    HW211438   6.801   3.714   3.340  0.6434 -1.7489 -1.9076
 3333SOL     OW11439   0.416   3.874   3.586  0.0177 -0.2632 -0.1300
 3333SOL    HW111440   0.338   3.884   3.532 -0.5325 -1.9375  0.2851
 3333SOL    HW211441   0.425   3.958   3.630 -1.7077 -0.0884 -0.0197
 3334SOL     OW11442   5.631   4.680   4.395 -0.2510  0.0698 -0.0087
 3334SOL    HW111443   5.705   4.681   4.333  1.1576 -0.0030  1.6074
 3334SOL    HW211444   5.642   4.759   4.447 -1.1387 -0.1249  0.4910
 3335SOL     OW11445   7.360   5.985   3.298 -0.0982  0.8546 -0.3670
 3335SOL    HW111446   7.382   5.922   3.367  0.8610  0.9597 -0.5741
 3335SOL    HW211447   7.413   5.959   3.223 -1.1360  0.7391 -1.0919
 3336SOL     OW11448   7.092   4.407   3.581  0.5151  0.5230  0.2195
 3336SOL    HW111449   7.015   4.388   3.634  1.1494  1.0692  1.3683
 3336SOL    HW211450   7.098   4.502   3.581  1.1457  0.4880  0.0867
 3337SOL     OW11451   1.611   3.745   2.939  0.5032  0.0800  0.4683
 3337SOL    HW111452   1.618   3.837   2.917 -0.0356 -0.2755 -1.3652
 3337SOL    HW211453   1.533   3.739   2.994  0.8332  0.7560  1.0343
 3338SOL     OW11454   0.583   4.605   5.033  0.2607  0.1782  0.5338
 3338SOL    HW111455   0.601   4.529   4.978 -0.4701  1.5326 -1.6995
 3338SOL    HW211456   0.500   4.584   5.077  0.5863 -0.7091  0.7338
 3339SOL     OW11457   0.445   4.030   5.076 -0.8252  0.3467 -0.6306
 3339SOL    HW111458   0.416   4.089   5.146 -0.4114  2.1824 -1.9609
 3339SOL    HW211459   0.525   4.069   5.043  1.0796 -2.4795  0.2544
 3340SOL     OW11460   1.090   4.309   4.168 -0.3222  0.3214 -0.2999
 3340SOL    HW111461   1.083   4.394   4.210  0.3876  1.7522 -2.8163
 3340SOL    HW211462   1.171   4.271   4.203 -1.3507  0.0078  1.8540
 3341SOL     OW11463   1.928   6.696   3.191  0.0780  0.4807  0.1085
 3341SOL    HW111464   1.904   6.744   3.270 -0.0844 -0.7057  0.7963
 3341SOL    HW211465   2.022   6.683   3.198  0.0577  0.3425  0.1250
 3342SOL     OW11466   2.159   5.007   4.271  0.2491 -0.5169  0.2042
 3342SOL    HW111467   2.073   5.036   4.302  0.8534 -0.0620  1.5427
 3342SOL    HW211468   2.139   4.950   4.197 -1.0681  1.6528 -1.2100
 3343SOL     OW11469   1.075   2.110   5.350 -0.1764  0.1823 -0.1858
 3343SOL    HW111470   1.022   2.187   5.370 -0.8435 -0.4447  0.5054
 3343SOL    HW211471   1.012   2.042   5.328  0.3292 -0.5575  0.5925
 3344SOL     OW11472   0.730   3.793   2.903  0.1682  0.1742 -0.7646
 3344SOL    HW111473   0.690   3.714   2.937 -0.6519  0.6732 -0.5309
 3344SOL    HW211474   0.811   3.764   2.860  0.1310 -0.7103 -0.2414
 3345SOL     OW11475   0.942   3.284   5.639 -0.1826  0.0767 -1.4258
 3345SOL    HW111476   0.872   3.219   5.633 -0.3216  0.2348 -1.5240
 3345SOL    HW211477   1.023   3.234   5.628 -0.3189  0.0124 -2.1706
 3346SOL     OW11478   1.063   4.448   5.367  0.1105 -0.5578 -0.4898
 3346SOL    HW111479   1.014   4.529   5.382 -1.4996 -1.7176  0.8009
 3346SOL    HW211480   1.100   4.426   5.452  0.4073 -1.2767 -0.7967
 3347SOL     OW11481   2.359   6.361   4.219 -0.1825 -0.2356  0.2485
 3347SOL    HW111482   2.388   6.389   4.132 -0.1952 -0.7025  0.0950
 3347SOL    HW211483   2.368   6.440   4.273  1.2185 -0.3157  0.1710
 3348SOL     OW11484   1.295   6.231   5.475  0.0989  0.3502 -0.1601
 3348SOL    HW111485   1.200   6.233   5.486 -0.1214 -0.5984 -1.5665
 3348SOL    HW211486   1.308   6.189   5.390  1.7721  0.7738 -0.1482
 3349SOL     OW11487   7.212   4.011   3.717 -0.0887 -0.1576  0.2541
 3349SOL    HW111488   7.258   4.056   3.646 -0.6020 -0.8102 -0.5052
 3349SOL    HW211489   7.123   3.998   3.683 -0.7614  0.7805  1.5671
 3350SOL     OW11490   7.389   6.548   2.820  0.3777  0.2693 -0.1792
 3350SOL    HW111491   7.375   6.577   2.730  0.9321 -2.5910 -1.3067
 3350SOL    HW211492   7.305   6.509   2.845  0.8340 -0.7712 -0.2386
 3351SOL     OW11493   3.441   7.027   4.670  0.0864 -0.6532 -0.2389
 3351SOL    HW111494   3.515   7.021   4.731  0.7805 -0.7452 -1.0723
 3351SOL    HW211495   3.406   7.114   4.684  0.4885 -0.5264  0.0121
 3352SOL     OW11496   0.338   4.498   4.141  0.2015 -0.2785  0.7059
 3352SOL    HW111497   0.264   4.498   4.080  1.6165  2.1649 -1.1585
 3352SOL    HW211498   0.309   4.440   4.212 -3.1561 -0.0859 -0.3025
 3353SOL     OW11499   0.046   4.870   3.034 -0.5707  0.1223  0.1496
 3353SOL    HW111500   0.125   4.817   3.037 -1.5542 -1.6346 -1.9987
 3353SOL    HW211501  -0.014   4.829   3.096 -0.2562  0.6902  0.8423
 3354SOL     OW11502   2.243   4.453   4.624  0.2432 -0.3247 -0.4854
 3354SOL    HW111503   2.215   4.544   4.628  1.6235  0.1011  0.1528
 3354SOL    HW211504   2.306   4.450   4.552 -0.9054 -1.1184 -1.4895
 3355SOL     OW11505   7.453   4.578   4.353 -0.0833 -0.1218  0.4871
 3355SOL    HW111506   7.359   4.566   4.366 -0.2441  1.3578  0.9370
 3355SOL    HW211507   7.494   4.529   4.424 -0.6192  0.9798  1.5835
 3356SOL     OW11508   0.107   5.057   5.382 -0.0048  0.4757  0.0060
 3356SOL    HW111509   0.071   5.080   5.467 -1.8800 -0.1139 -0.5837
 3356SOL    HW211510   0.066   5.118   5.321  0.5899  0.2764 -0.6016
 3357SOL     OW11511   1.347   3.816   5.663  0.3197 -0.2699  0.2096
 3357SOL    HW111512   1.349   3.884   5.731 -0.2964 -0.0083 -0.0252
 3357SOL    HW211513   1.347   3.865   5.581 -1.6846 -0.4594  0.0291
 3358SOL     OW11514   7.434   5.826   5.686 -0.2890 -0.3807 -0.5054
 3358SOL    HW111515   7.382   5.894   5.643 -0.7283  0.0316  0.6349
 3358SOL    HW211516   7.377   5.793   5.755  1.4002  0.9800  1.6384
 3359SOL     OW11517   6.318   3.501   7.242 -0.2523  0.6484 -0.3131
 3359SOL    HW111518   6.402   3.475   7.206 -0.1141 -0.9113  1.0235
 3359SOL    HW211519   6.310   3.594   7.219  1.7164  0.7763 -0.6637
 3360SOL     OW11520   0.762   3.488   3.905  0.3772 -0.0945  0.2120
 3360SOL    HW111521   0.706   3.515   3.833  0.1337  0.2851  0.5351
 3360SOL    HW211522   0.700   3.463   3.975  0.5722 -2.2049 -0.3074
 3361SOL     OW11523   1.349   3.553   4.298  0.0482  0.1482  0.2110
 3361SOL    HW111524   1.266   3.560   4.250 -0.7582 -0.6488  1.4452
 3361SOL    HW211525   1.353   3.462   4.326  0.1518  0.7307  2.2182
 3362SOL     OW11526   0.237   3.633   4.895  0.1026  0.2282 -0.4887
 3362SOL    HW111527   0.148   3.625   4.931  0.0273  0.3073 -0.6563
 3362SOL    HW211528   0.289   3.666   4.968  0.0061  0.1257 -0.3717
 3363SOL     OW11529   2.210   4.307   5.083 -0.2859 -0.1055  0.1887
 3363SOL    HW111530   2.296   4.265   5.080 -0.8700 -1.3325  0.3443
 3363SOL    HW211531   2.171   4.289   4.998 -0.7312 -0.2990  0.4309
 3364SOL     OW11532   0.192   3.712   3.717  0.2448  0.2511  0.4840
 3364SOL    HW111533   0.250   3.754   3.653  0.9651  0.0565  0.9858
 3364SOL    HW211534   0.110   3.760   3.710  0.1179 -0.1310 -0.9799
 3365SOL     OW11535   0.351   6.306   3.969 -0.4546 -0.0474 -0.0178
 3365SOL    HW111536   0.322   6.234   4.025  0.9069 -0.0797  0.6635
 3365SOL    HW211537   0.277   6.367   3.969 -1.1221 -0.8340  0.4255
 3366SOL     OW11538   0.350   7.500   4.449  0.1782 -0.5093 -0.3660
 3366SOL    HW111539   0.387   7.586   4.470 -0.3119 -0.2568 -0.5159
 3366SOL    HW211540   0.295   7.516   4.373 -0.7631 -0.7379  0.2486
 3367SOL     OW11541   2.178   6.617   4.520  0.5213  0.1661  0.1308
 3367SOL    HW111542   2.186   6.533   4.566  0.8030 -0.4461 -0.9915
 3367SOL    HW211543   2.084   6.628   4.506  0.5785 -1.4292 -2.2147
 3368SOL     OW11544   7.067   6.115   3.008 -0.0596 -0.4477  0.0716
 3368SOL    HW111545   7.144   6.142   3.058  1.7921 -0.7720 -2.3617
 3368SOL    HW211546   7.103   6.061   2.937 -2.6510 -1.3523 -0.6698
 3369SOL     OW11547   7.614   4.666   5.559  0.2456 -0.2507 -1.0015
 3369SOL    HW111548   7.541   4.716   5.597  0.9601  1.1375 -1.3868
 3369SOL    HW211549   7.605   4.579   5.598 -0.1143  0.5925  0.9764
 3370SOL     OW11550   7.922   5.083   4.992 -0.0935 -0.0089  0.4454
 3370SOL    HW111551   7.951   5.170   5.020 -1.4929  0.0677  1.7622
 3370SOL    HW211552   7.890   5.041   5.071  0.5643 -1.7760 -0.1580
 3371SOL     OW11553   1.839   4.968   7.483  0.0033 -0.3848 -0.0013
 3371SOL    HW111554   1.825   4.877   7.455  0.5025 -0.4297 -0.1105
 3371SOL    HW211555   1.901   4.961   7.556 -1.6436 -0.3176  1.4742
 3372SOL     OW11556   0.071   6.953   5.011  0.2252  0.4111  0.3504
 3372SOL    HW111557   0.120   7.028   4.977  2.5464 -1.0665  0.1650
 3372SOL    HW211558  -0.005   6.991   5.054  1.6409  2.9167  0.8251
 3373SOL     OW11559   0.615   3.951   3.259 -0.0611 -0.0011  0.3914
 3373SOL    HW111560   0.532   3.967   3.303 -0.6888 -0.7144 -0.4920
 3373SOL    HW211561   0.615   3.857   3.242  0.9691 -0.0208  0.4452
 3374SOL     OW11562   0.923   1.788   4.622 -0.1766  0.5770  0.2919
 3374SOL    HW111563   0.979   1.749   4.554 -1.1413  0.3786 -0.4090
 3374SOL    HW211564   0.883   1.864   4.580 -2.3600 -0.6936 -0.0735
 3375SOL     OW11565   1.478   4.475   3.255 -0.0289 -0.6537 -0.0156
 3375SOL    HW111566   1.442   4.477   3.344 -0.2283 -0.7914 -0.0940
 3375SOL    HW211567   1.465   4.565   3.223 -0.8965 -0.8647 -0.2791
 3376SOL     OW11568   6.153   3.553   5.703  0.6780  0.1754 -0.3972
 3376SOL    HW111569   6.185   3.579   5.616  3.8920 -0.6194  0.4350
 3376SOL    HW211570   6.088   3.485   5.685 -0.1239  1.3424 -2.2050
 3377SOL     OW11571   1.187   5.892   5.476  0.8060  0.3168 -0.5425
 3377SOL    HW111572   1.266   5.911   5.426  0.8468 -0.6952 -0.8765
 3377SOL    HW211573   1.127   5.853   5.413  0.2673  0.5014 -0.1491
 3378SOL     OW11574   1.607   4.922   6.312 -0.1654 -0.6280  0.5373
 3378SOL    HW111575   1.674   4.986   6.289 -0.3456 -0.4558  0.4943
 3378SOL    HW211576   1.529   4.950   6.265 -0.6418 -0.0598  1.6437
 3379SOL     OW11577   3.365   5.299   5.623 -0.2310  0.2385  0.0531
 3379SOL    HW111578   3.338   5.240   5.694  0.1292 -0.7206 -0.5914
 3379SOL    HW211579   3.371   5.243   5.546  0.8690  0.9614 -0.4205
 3380SOL     OW11580   0.641   3.680   4.293 -0.2394 -0.4767  0.1428
 3380SOL    HW111581   0.625   3.695   4.387  0.9511 -0.2567  0.3329
 3380SOL    HW211582   0.558   3.648   4.259 -1.3147  1.3445  0.8752
 3381SOL     OW11583   1.047   5.269   3.442 -0.1657  0.3694 -0.7639
 3381SOL    HW111584   0.966   5.305   3.479  0.9881  1.5303  0.7807
 3381SOL    HW211585   1.020   5.227   3.360 -1.8133  3.7012 -2.1007
 3382SOL     OW11586   0.889   4.657   5.426  0.2547 -0.1456 -0.0369
 3382SOL    HW111587   0.810   4.647   5.479  0.9055 -2.1232  0.6450
 3382SOL    HW211588   0.879   4.743   5.385 -1.2109  0.6057  1.7296
 3383SOL     OW11589   0.640   4.347   4.344 -0.1224 -0.1800 -0.0529
 3383SOL    HW111590   0.625   4.414   4.411 -0.0862 -0.1134 -0.1115
 3383SOL    HW211591   0.553   4.335   4.304 -0.2450 -0.5617  0.3231
 3384SOL     OW11592   0.752   5.536   5.954  0.4924  0.1634  0.6355
 3384SOL    HW111593   0.820   5.532   6.021  1.6255  1.9103 -0.3239
 3384SOL    HW211594   0.757   5.451   5.910  0.6948 -0.4615  1.8346
 3385SOL     OW11595   7.790   4.847   4.227  0.5349 -0.5769 -0.1129
 3385SOL    HW111596   7.858   4.839   4.294 -0.3879 -0.7656  0.8236
 3385SOL    HW211597   7.741   4.925   4.251  1.9016  1.0297 -2.2108
 3386SOL     OW11598   1.797   5.817   3.697  0.2485 -0.1759  0.4763
 3386SOL    HW111599   1.834   5.903   3.679 -0.6555 -0.2856 -2.5896
 3386SOL    HW211600   1.869   5.756   3.682  0.5515 -0.0414  1.3507
 3387SOL     OW11601   7.544   5.840   3.721  0.2194  0.2067  0.0816
 3387SOL    HW111602   7.606   5.787   3.771  0.6163  1.7887  1.3449
 3387SOL    HW211603   7.490   5.882   3.787 -1.1709  0.1101 -0.9494
 3388SOL     OW11604   6.717   3.871   2.442  0.3945  0.3063  0.1389
 3388SOL    HW111605   6.762   3.858   2.358  0.9353  0.9595  0.3125
 3388SOL    HW211606   6.662   3.948   2.427  0.8018  0.6749  0.4961
 3389SOL     OW11607   1.020   3.912   4.157 -0.3776 -0.5981 -0.6873
 3389SOL    HW111608   1.115   3.904   4.156 -0.5018 -3.2102 -0.0834
 3389SOL    HW211609   1.004   4.005   4.175  2.1004 -0.5117  1.8808
 3390SOL     OW11610   1.296   3.222   5.151 -0.4404 -0.4596 -0.1570
 3390SOL    HW111611   1.302   3.239   5.057 -0.4791  0.7848  0.0505
 3390SOL    HW211612   1.381   3.249   5.187 -0.7244 -0.1197  0.2774
 3391SOL     OW11613   2.291   2.079   5.027  0.5864 -0.3137 -0.0882
 3391SOL    HW111614   2.359   2.090   4.961  0.6123 -0.9282 -0.1714
 3391SOL    HW211615   2.305   1.990   5.061  0.7323  0.0764  0.9242
 3392SOL     OW11616   7.119   4.787   6.209 -0.4257 -0.6537 -0.1666
 3392SOL    HW111617   7.089   4.720   6.149  0.2637 -2.5731  1.5192
 3392SOL    HW211618   7.210   4.763   6.229 -0.3463  0.4251  0.9389
 3393SOL     OW11619   5.245   5.152   4.973  0.0811  0.2561  0.1603
 3393SOL    HW111620   5.339   5.168   4.969 -0.2792  2.4124 -0.9645
 3393SOL    HW211621   5.233   5.073   4.920  1.1534  0.5456 -0.5653
 3394SOL     OW11622   7.858   4.361   3.867 -0.3182 -0.6034 -0.1072
 3394SOL    HW111623   7.869   4.391   3.777  0.7954  1.8672  0.7568
 3394SOL    HW211624   7.789   4.418   3.902  0.3069 -0.5202  1.0136
 3395SOL     OW11625   1.312   3.317   4.878 -0.1972 -0.1412  0.1087
 3395SOL    HW111626   1.312   3.411   4.857  1.4679  0.1725  1.3500
 3395SOL    HW211627   1.381   3.281   4.823  0.1045 -0.3862  0.6477
 3396SOL     OW11628   1.601   4.377   4.878 -0.5335  0.0138  0.0730
 3396SOL    HW111629   1.673   4.414   4.826 -1.2397  0.3296 -0.7008
 3396SOL    HW211630   1.626   4.394   4.969  0.6809 -0.4693 -0.1610
 3397SOL     OW11631   2.518   4.905   4.520 -0.3011  0.0077 -0.8299
 3397SOL    HW111632   2.459   4.923   4.446 -0.3469  0.9545 -0.5754
 3397SOL    HW211633   2.605   4.926   4.486  0.0549 -2.2782 -1.5088
 3398SOL     OW11634   1.087   3.476   3.661  0.2118 -0.3796 -0.1472
 3398SOL    HW111635   1.155   3.535   3.629  1.3001 -0.1972  2.3642
 3398SOL    HW211636   1.017   3.534   3.690  0.5465 -0.4017  0.7049
 3399SOL     OW11637   1.469   2.481   4.909 -0.1483 -0.3913  0.2901
 3399SOL    HW111638   1.475   2.532   4.828 -0.6953 -0.4812  0.1925
 3399SOL    HW211639   1.411   2.533   4.965 -0.5669 -0.8180  0.2564
 3400SOL     OW11640   2.620   4.076   6.306 -0.0302 -0.3525 -0.0272
 3400SOL    HW111641   2.666   4.124   6.375 -0.3600 -0.7437  0.4719
 3400SOL    HW211642   2.630   3.984   6.330  0.4748 -0.5371 -0.9016
 3401SOL     OW11643   0.402   7.287   7.982  0.1706  0.3658  0.2877
 3401SOL    HW111644   0.330   7.247   7.934  0.1969  1.0007 -0.2892
 3401SOL    HW211645   0.378   7.379   7.991  0.6088  0.4543  0.6619
 3402SOL     OW11646   0.772   3.773   5.001  0.3218 -0.1486  0.0273
 3402SOL    HW111647   0.715   3.773   4.924 -0.5691  0.7869  0.6701
 3402SOL    HW211648   0.735   3.706   5.059 -1.0493  1.4484  1.0765
 3403SOL     OW11649   1.484   6.417   4.678  0.4213 -0.0688 -0.0664
 3403SOL    HW111650   1.578   6.405   4.664  0.6409  1.4916 -0.1439
 3403SOL    HW211651   1.476   6.506   4.712 -1.3042  1.1384 -3.2347
 3404SOL     OW11652   6.905   4.080   2.169 -0.1190 -0.0738  0.1713
 3404SOL    HW111653   6.830   4.091   2.111 -0.2198 -1.2287  0.0613
 3404SOL    HW211654   6.937   3.992   2.151  1.1013  0.3001  0.4228
 3405SOL     OW11655   7.331   4.986   5.153 -0.0922 -0.1752  0.0029
 3405SOL    HW111656   7.371   4.979   5.066  1.1065  0.7382  0.4535
 3405SOL    HW211657   7.292   5.073   5.154 -2.3771 -1.1259 -0.5007
 3406SOL     OW11658   1.202   4.758   4.834 -0.2655 -0.8381  0.4564
 3406SOL    HW111659   1.283   4.774   4.881 -0.5415  1.2822  0.3149
 3406SOL    HW211660   1.227   4.760   4.741 -0.8255  3.2315  0.2069
 3407SOL     OW11661   0.695   5.254   3.087  0.3059  0.3409  0.0945
 3407SOL    HW111662   0.678   5.188   3.020  0.1802  0.1896  0.2734
 3407SOL    HW211663   0.786   5.240   3.112  0.2030  0.0664  0.3156
 3408SOL     OW11664   2.019   6.331   4.828  0.5263  0.2451 -0.3684
 3408SOL    HW111665   2.007   6.250   4.878  0.3243  0.2984 -0.3309
 3408SOL    HW211666   1.945   6.333   4.768  1.5602 -0.5832 -1.7178
 3409SOL     OW11667   1.803   3.488   5.152  0.7360  0.3497  0.2925
 3409SOL    HW111668   1.834   3.567   5.196  2.1840 -0.4622  0.8018
 3409SOL    HW211669   1.859   3.419   5.186 -1.3998 -1.1783  0.9427
 3410SOL     OW11670   6.399   6.681   3.676 -0.2235  0.3180  0.1490
 3410SOL    HW111671   6.438   6.605   3.634 -0.5458 -0.6860  1.6022
 3410SOL    HW211672   6.331   6.645   3.733 -2.3436  1.8952 -1.2156
 3411SOL     OW11673   1.088   6.274   4.829 -0.3838 -0.0871 -0.0176
 3411SOL    HW111674   1.005   6.310   4.861 -0.5992 -1.9624  1.7468
 3411SOL    HW211675   1.084   6.181   4.851  1.9354 -0.3641 -0.4692
 3412SOL     OW11676   2.879   2.483   4.385 -0.3929  0.1239 -0.1429
 3412SOL    HW111677   2.965   2.453   4.416  0.1717  0.0207 -1.7022
 3412SOL    HW211678   2.892   2.499   4.292 -1.9957  0.4335 -0.3387
 3413SOL     OW11679   1.169   5.563   3.710 -0.2859  0.2154  0.2837
 3413SOL    HW111680   1.186   5.469   3.709  0.4849  0.2509 -3.4103
 3413SOL    HW211681   1.190   5.590   3.800  1.6895 -2.7259  0.8591
 3414SOL     OW11682   1.165   4.676   6.084 -0.0870 -0.1185  0.5593
 3414SOL    HW111683   1.146   4.753   6.137 -0.0637  0.4431 -0.2284
 3414SOL    HW211684   1.134   4.698   5.996  1.3364 -0.3876 -0.0412
 3415SOL     OW11685   2.653   5.246   5.042 -0.1127  0.4323  0.4873
 3415SOL    HW111686   2.726   5.205   4.995 -0.1123  0.0534  0.8142
 3415SOL    HW211687   2.599   5.284   4.973 -0.1119 -0.1158  0.1725
 3416SOL     OW11688   0.791   5.655   3.772 -0.6881 -0.1428  0.5513
 3416SOL    HW111689   0.800   5.560   3.769  0.6085 -0.1264 -3.9368
 3416SOL    HW211690   0.722   5.674   3.708 -0.2491  1.9316  0.6412
 3417SOL     OW11691   2.095   5.145   3.927  0.0232 -0.0981 -0.1070
 3417SOL    HW111692   2.146   5.066   3.939  1.6693  0.9163 -0.1898
 3417SOL    HW211693   2.132   5.209   3.988 -0.3944  1.0079 -0.9549
 3418SOL     OW11694   3.207   6.204   3.918 -0.0668 -0.0683  0.3144
 3418SOL    HW111695   3.118   6.235   3.934 -0.0391  0.3077 -0.2286
 3418SOL    HW211696   3.204   6.111   3.938 -0.3845  0.0968  1.0800
 3419SOL     OW11697   1.672   4.940   3.545  0.3433 -0.1670  0.0957
 3419SOL    HW111698   1.630   4.883   3.481  1.4470  0.6683 -1.4273
 3419SOL    HW211699   1.748   4.890   3.576  1.6187  0.5908 -1.6324
 3420SOL     OW11700   7.655   5.605   3.811  0.3741  0.2442 -0.2886
 3420SOL    HW111701   7.585   5.540   3.818  3.0443 -2.7918  1.5211
 3420SOL    HW211702   7.696   5.588   3.727  1.1868 -0.6505  0.2630
 3421SOL     OW11703   7.495   3.861   1.772  0.1748  0.1916  0.1219
 3421SOL    HW111704   7.486   3.956   1.758  0.2401  0.2079  0.1909
 3421SOL    HW211705   7.487   3.850   1.866  1.0608  0.2284  0.2061
 3422SOL     OW11706   0.967   3.451   4.638  0.8938  0.7360 -0.1423
 3422SOL    HW111707   1.020   3.486   4.710  2.3505  1.3439 -1.4539
 3422SOL    HW211708   1.024   3.385   4.596 -0.4157 -0.5432  0.0173
 3423SOL     OW11709   1.368   4.479   4.756 -0.1424  0.2150  0.1514
 3423SOL    HW111710   1.450   4.482   4.804 -0.4905  0.9972  0.7274
 3423SOL    HW211711   1.342   4.571   4.746 -0.8607 -0.0072 -0.1631
 3424SOL     OW11712   2.082   3.925   4.686  0.2322 -0.2108  0.1658
 3424SOL    HW111713   2.131   4.003   4.658 -0.6687 -0.1583 -1.3569
 3424SOL    HW211714   2.136   3.851   4.658  0.4170 -0.1493  0.3531
 3425SOL     OW11715   0.053   5.399   4.404  0.7615  0.2387  0.1380
 3425SOL    HW111716  -0.010   5.339   4.362  0.2775  0.8166  0.0275
 3425SOL    HW211717   0.107   5.342   4.458 -0.3110 -0.1874  0.7985
 3426SOL     OW11718   2.677   5.414   4.469 -0.4663 -0.2651 -0.4669
 3426SOL    HW111719   2.585   5.427   4.448 -0.3909  0.3482 -0.4238
 3426SOL    HW211720   2.704   5.339   4.415 -0.7284  0.1848 -1.2358
 3427SOL     OW11721   0.379   5.149   3.102  0.1280 -0.7522 -0.1624
 3427SOL    HW111722   0.320   5.176   3.172  0.8507 -1.7858  0.8825
 3427SOL    HW211723   0.415   5.231   3.069 -1.9165 -0.0943 -0.8874
 3428SOL     OW11724   0.473   3.216   4.320  0.1465  0.3024  0.7148
 3428SOL    HW111725   0.383   3.250   4.320  0.3858  0.9537  1.0865
 3428SOL    HW211726   0.474   3.152   4.249 -0.2107  1.3657 -0.2856
 3429SOL     OW11727   0.207   5.795   3.109 -0.1489 -0.3187 -0.4550
 3429SOL    HW111728   0.281   5.735   3.098 -0.4286 -0.5985 -0.8409
 3429SOL    HW211729   0.173   5.807   3.021 -0.3487  0.0851 -0.3227
 3430SOL     OW11730   7.989   2.873   5.225 -0.3888  0.0332 -0.2789
 3430SOL    HW111731   7.930   2.938   5.264  0.4726  1.4269 -1.2455
 3430SOL    HW211732   7.937   2.792   5.225 -2.1531  1.1025 -0.6884
 3431SOL     OW11733   0.105   4.563   2.832  0.2946  0.2697  0.1829
 3431SOL    HW111734   0.167   4.636   2.832  0.3052  0.2727  1.1945
 3431SOL    HW211735   0.145   4.497   2.889 -1.5941  1.1452  2.7442
 3432SOL     OW11736   7.855   4.116   5.054  0.3319  0.1117 -0.0598
 3432SOL    HW111737   7.810   4.200   5.043  1.1376  0.8783  2.0055
 3432SOL    HW211738   7.946   4.136   5.033  0.4032 -0.4262 -0.2674
 3433SOL     OW11739   1.954   3.024   4.808 -0.0663  0.5396  0.4474
 3433SOL    HW111740   1.956   3.051   4.900 -0.3557 -1.2568  1.0211
 3433SOL    HW211741   2.046   3.014   4.784 -0.0051 -1.0182  1.2116
 3434SOL     OW11742   0.886   7.272   4.030 -0.6086 -0.4203  0.1855
 3434SOL    HW111743   0.868   7.249   3.939  0.5725  0.1734 -0.2103
 3434SOL    HW211744   0.804   7.310   4.062 -1.1900 -1.0862 -0.4605
 3435SOL     OW11745   1.603   3.084   4.600 -0.4683 -0.2469 -0.2955
 3435SOL    HW111746   1.609   3.123   4.687  1.4422 -0.8490 -0.1093
 3435SOL    HW211747   1.542   3.012   4.610  1.2825 -1.6381  1.1356
 3436SOL     OW11748   7.299   4.838   4.632 -0.7519 -0.8763  0.2526
 3436SOL    HW111749   7.221   4.892   4.644 -0.9647 -0.9852 -0.5639
 3436SOL    HW211750   7.265   4.749   4.619 -0.4974 -0.9281 -0.0807
 3437SOL     OW11751   2.059   4.103   3.273  0.0916  0.0835  0.5469
 3437SOL    HW111752   2.108   4.159   3.212  0.7252  1.2418  2.0563
 3437SOL    HW211753   2.104   4.019   3.269  1.6614  0.8477  1.1869
 3438SOL     OW11754   7.926   4.438   5.365  0.0176  0.3062  0.0279
 3438SOL    HW111755   7.955   4.351   5.337 -0.4741  0.0933  0.1674
 3438SOL    HW211756   7.909   4.486   5.283 -1.2175 -0.2459 -0.0613
 3439SOL     OW11757   2.943   6.322   4.486 -0.3519 -0.1618 -0.0414
 3439SOL    HW111758   2.873   6.378   4.452 -1.7934 -1.8000  0.1264
 3439SOL    HW211759   3.010   6.323   4.418 -1.2379  0.1373 -0.9235
 3440SOL     OW11760   2.120   4.097   5.342  0.0143 -0.0524 -0.2055
 3440SOL    HW111761   2.200   4.148   5.338 -0.5156  0.8310  0.3077
 3440SOL    HW211762   2.147   4.009   5.313  1.3866 -0.0573  0.9647
 3441SOL     OW11763   2.249   5.608   5.727  0.1270 -0.4501 -0.0809
 3441SOL    HW111764   2.312   5.535   5.722 -0.0726 -0.6389  0.1491
 3441SOL    HW211765   2.170   5.574   5.685  0.2534 -0.1322 -0.5764
 3442SOL     OW11766   2.795   4.001   5.921 -0.1078  0.1291 -0.0292
 3442SOL    HW111767   2.812   3.920   5.970 -1.8037  0.2265  0.7717
 3442SOL    HW211768   2.873   4.012   5.867  0.7691 -1.2961  0.8639
 3443SOL     OW11769   0.542   3.638   6.269 -0.5440  0.1928 -0.3328
 3443SOL    HW111770   0.603   3.569   6.293 -1.4700 -0.3827  0.4443
 3443SOL    HW211771   0.592   3.719   6.278  0.6078 -0.3645 -1.4389
 3444SOL     OW11772   7.628   5.978   5.179  0.0656  0.1981  0.2921
 3444SOL    HW111773   7.550   5.936   5.216 -1.3623  1.9882 -0.4996
 3444SOL    HW211774   7.601   6.069   5.162  2.2023  0.7705 -0.4188
 3445SOL     OW11775   0.521   4.512   5.953  0.4313 -0.0822  0.5154
 3445SOL    HW111776   0.504   4.570   6.027 -0.8852 -1.1796  1.1005
 3445SOL    HW211777   0.570   4.439   5.990 -2.2173 -1.8046  0.8681
 3446SOL     OW11778   1.844   4.354   5.657  0.0934 -0.1590 -0.4434
 3446SOL    HW111779   1.879   4.339   5.570  1.5229 -1.0539  0.2475
 3446SOL    HW211780   1.881   4.439   5.683 -0.7300  0.3448 -0.8773
 3447SOL     OW11781   7.991   5.577   4.865 -0.3757 -0.0289 -0.3328
 3447SOL    HW111782   7.957   5.559   4.778  1.4426 -1.0186 -0.8883
 3447SOL    HW211783   7.957   5.664   4.887 -1.2409  0.0331 -1.8177
 3448SOL     OW11784   0.068   4.718   3.777  0.1945 -0.2666  0.0607
 3448SOL    HW111785  -0.002   4.751   3.833  0.5601  0.0046  0.3622
 3448SOL    HW211786   0.147   4.759   3.811  0.3484  0.3694 -1.0107
 3449SOL     OW11787   0.899   4.396   5.617 -0.1003  0.3750 -0.3362
 3449SOL    HW111788   0.879   4.457   5.688  0.0054 -2.5307  2.4514
 3449SOL    HW211789   0.993   4.406   5.603  0.2560 -0.1968  1.3192
 3450SOL     OW11790   2.099   4.943   3.016  0.1349  0.1307  0.4186
 3450SOL    HW111791   2.135   5.027   3.046  1.3309 -0.2796  0.1836
 3450SOL    HW211792   2.159   4.878   3.051 -1.1530 -0.7010  1.1554
 3451SOL     OW11793   2.859   5.285   2.727  0.0641  0.0306 -0.7823
 3451SOL    HW111794   2.776   5.326   2.704 -0.3163  0.0616  0.5667
 3451SOL    HW211795   2.866   5.209   2.670 -1.2128 -0.3542 -0.4419
 3452SOL     OW11796   0.771   5.504   4.307  0.2506 -0.2550 -0.5632
 3452SOL    HW111797   0.679   5.508   4.282 -0.0932  0.5627  0.7169
 3452SOL    HW211798   0.770   5.465   4.394  1.1461 -0.5205 -0.6656
 3453SOL     OW11799   7.788   3.715   2.827 -0.8687  0.0673  0.0918
 3453SOL    HW111800   7.724   3.782   2.848  0.4118  0.9456  1.3738
 3453SOL    HW211801   7.836   3.701   2.909  0.7598 -0.3551 -0.8881
 3454SOL     OW11802   1.027   4.239   5.198  0.3280 -0.2580 -0.3726
 3454SOL    HW111803   1.008   4.261   5.107  1.4216 -0.6098 -0.7032
 3454SOL    HW211804   1.047   4.323   5.239 -0.9119 -0.0031 -0.2542
 3455SOL     OW11805   0.467   4.346   4.878 -0.2309 -0.4275  0.5630
 3455SOL    HW111806   0.517   4.273   4.914  1.3931 -0.3895 -1.4020
 3455SOL    HW211807   0.411   4.305   4.812  0.9160  0.0513 -0.7717
 3456SOL     OW11808   7.124   4.467   1.304  0.3757  0.1517  0.2823
 3456SOL    HW111809   7.076   4.414   1.241 -0.4011 -0.0654  1.0462
 3456SOL    HW211810   7.214   4.467   1.272 -0.0054  0.0544 -0.8285
 3457SOL     OW11811   2.792   6.573   3.822 -0.3128 -0.0415  0.3369
 3457SOL    HW111812   2.859   6.599   3.758  0.9166  0.9895  1.9603
 3457SOL    HW211813   2.730   6.646   3.823 -0.1832  0.0683  0.4962
 3458SOL     OW11814   5.611   4.863   5.018  0.1771  0.0237  0.3697
 3458SOL    HW111815   5.588   4.905   4.935  0.5481 -0.5494 -0.0308
 3458SOL    HW211816   5.611   4.934   5.082 -0.4561  0.4132 -0.0523
 3459SOL     OW11817   7.711   5.361   1.448 -0.5798 -0.0372 -0.1693
 3459SOL    HW111818   7.796   5.361   1.492 -1.0924  0.0653  0.8446
 3459SOL    HW211819   7.684   5.269   1.448 -0.7949  0.0250  0.1572
 3460SOL     OW11820   2.114   4.472   4.301 -0.1133  0.1956 -0.7339
 3460SOL    HW111821   2.171   4.398   4.278  0.9129  0.0269  1.9855
 3460SOL    HW211822   2.036   4.430   4.338  0.6354  0.3675  1.1829
 3461SOL     OW11823   0.526   3.621   4.535  0.2232  0.1007 -0.3282
 3461SOL    HW111824   0.434   3.595   4.535 -0.0087  0.8857  0.1194
 3461SOL    HW211825   0.573   3.541   4.512 -0.6637  0.0839 -2.3772
 3462SOL     OW11826   0.001   5.509   3.602 -0.0167 -0.2969 -0.0194
 3462SOL    HW111827  -0.045   5.426   3.615 -1.3211  0.2539 -0.9496
 3462SOL    HW211828   0.017   5.542   3.690 -1.0687 -0.7026  0.3344
 3463SOL     OW11829   1.021   5.419   5.147 -0.1808  0.6730  0.1744
 3463SOL    HW111830   1.112   5.447   5.144 -0.4720  1.6429  0.0158
 3463SOL    HW211831   0.997   5.423   5.239 -0.3328  1.3376  0.1095
 3464SOL     OW11832   3.043   3.513   4.604 -0.1920  0.5663  0.0489
 3464SOL    HW111833   3.094   3.516   4.524 -0.1563  0.3285  0.0645
 3464SOL    HW211834   3.104   3.543   4.672 -0.5243  1.8144 -0.1692
 3465SOL     OW11835   1.603   3.818   5.454  0.1468  0.3598 -0.1258
 3465SOL    HW111836   1.659   3.883   5.411  0.7872  0.9966  1.5959
 3465SOL    HW211837   1.564   3.865   5.528  0.8505 -1.2821  1.3470
 3466SOL     OW11838   2.738   3.818   6.465  0.2092  0.3202 -0.4833
 3466SOL    HW111839   2.728   3.757   6.538  2.2112 -1.0786 -1.2854
 3466SOL    HW211840   2.806   3.879   6.494 -0.5994  1.1757 -0.3378
 3467SOL     OW11841   0.061   4.724   3.505 -0.3247 -1.0166  0.4050
 3467SOL    HW111842  -0.011   4.662   3.503  1.0129 -2.7057  1.7496
 3467SOL    HW211843   0.073   4.744   3.598 -2.0149  2.9632 -0.0300
 3468SOL     OW11844   0.881   4.487   3.951 -0.5623  0.3883  0.0557
 3468SOL    HW111845   0.797   4.523   3.978 -0.9722  0.4609 -1.2477
 3468SOL    HW211846   0.864   4.449   3.864  1.1360  2.0323 -1.0718
 3469SOL     OW11847   7.103   4.726   6.643  0.1600  0.0252 -1.0747
 3469SOL    HW111848   7.046   4.790   6.600 -0.2037 -0.0447 -0.7121
 3469SOL    HW211849   7.187   4.734   6.599 -0.1207  0.1673 -1.5868
 3470SOL     OW11850   6.562   3.968   6.691 -0.4615  0.0565 -0.1069
 3470SOL    HW111851   6.613   3.886   6.689 -1.0168 -0.2952 -0.1205
 3470SOL    HW211852   6.524   3.974   6.604  0.1184  0.6880 -0.3251
 3471SOL     OW11853   0.819   4.167   6.318 -0.1505  0.5883 -0.0649
 3471SOL    HW111854   0.855   4.169   6.229 -0.2240  1.8011 -0.0880
 3471SOL    HW211855   0.726   4.150   6.306  0.0378 -0.4816 -0.1301
 3472SOL     OW11856   1.120   4.534   9.051  0.2574  0.7297 -0.2915
 3472SOL    HW111857   1.129   4.627   9.027  0.1318  0.9984  0.6801
 3472SOL    HW211858   1.073   4.535   9.134 -1.3743 -0.2872 -1.1611
 3473SOL     OW11859   2.386   6.007   5.666  0.1398  0.2136 -0.2263
 3473SOL    HW111860   2.441   5.954   5.608 -1.3450 -0.6488 -0.8997
 3473SOL    HW211861   2.314   5.949   5.691 -0.4278  1.2756  0.7029
 3474SOL     OW11862   1.409   6.283   6.287 -0.4744 -0.0153  0.0474
 3474SOL    HW111863   1.339   6.294   6.351 -0.1684 -1.2411  0.6222
 3474SOL    HW211864   1.475   6.231   6.333  0.1854 -0.0794 -0.9530
 3475SOL     OW11865   1.454   4.019   5.933  0.1921  0.2983  0.2126
 3475SOL    HW111866   1.481   4.051   6.019 -1.4471 -2.5859  1.9815
 3475SOL    HW211867   1.359   4.025   5.933  0.1136 -0.4064 -1.1144
 3476SOL     OW11868   1.043   4.139   8.718 -0.1940  0.1670  0.7664
 3476SOL    HW111869   0.953   4.145   8.752 -0.1362  0.3099  0.8949
 3476SOL    HW211870   1.092   4.203   8.769  0.6822 -2.0219  2.8973
 3477SOL     OW11871   0.806   3.439   7.010  0.0236 -0.3792  0.3201
 3477SOL    HW111872   0.751   3.504   6.965  0.1913  0.7825  1.7388
 3477SOL    HW211873   0.893   3.479   7.013  0.1213 -0.6577  1.2356
 3478SOL     OW11874   6.838   4.281   7.117  0.2176  1.1665  0.3012
 3478SOL    HW111875   6.761   4.250   7.165  0.5526  0.6525  0.5198
 3478SOL    HW211876   6.811   4.280   7.026  0.3765 -0.2830  0.2531
 3479SOL     OW11877   7.804   5.979   7.641 -0.1290 -0.1315  0.0817
 3479SOL    HW111878   7.833   5.888   7.634  1.4219  0.1323  2.0008
 3479SOL    HW211879   7.836   6.020   7.561  2.5811 -0.5024  0.8648
 3480SOL     OW11880   6.340   4.338   6.384 -0.0898 -0.1706 -0.0225
 3480SOL    HW111881   6.287   4.348   6.305 -1.4984 -1.3620  0.7080
 3480SOL    HW211882   6.382   4.423   6.396 -2.2940  1.0473 -0.3667
 3481SOL     OW11883   2.818   6.318   5.675  0.0677  0.5732  0.0158
 3481SOL    HW111884   2.886   6.335   5.740  0.3921 -1.7866  0.3684
 3481SOL    HW211885   2.744   6.283   5.725  0.3012 -1.2272 -0.8224
 3482SOL     OW11886   7.226   3.133   6.335  0.2086  0.2419 -0.0536
 3482SOL    HW111887   7.179   3.185   6.400 -0.8525  0.7780 -1.1943
 3482SOL    HW211888   7.304   3.185   6.314 -0.2256  0.8090 -0.3014
 3483SOL     OW11889   0.555   4.391   6.888 -0.2936 -0.1639  0.0239
 3483SOL    HW111890   0.471   4.393   6.842 -0.2651  0.5081 -0.0143
 3483SOL    HW211891   0.541   4.446   6.965  0.5895  1.3936 -0.8550
 3484SOL     OW11892   0.828   6.387   4.886  0.0303 -0.0299  0.0863
 3484SOL    HW111893   0.787   6.415   4.804 -1.4270 -0.8690  0.4905
 3484SOL    HW211894   0.808   6.294   4.893 -1.0783  0.2804  2.0346
 3485SOL     OW11895   7.957   5.438   5.618  0.0176 -0.5025 -0.2751
 3485SOL    HW111896   7.940   5.436   5.713  1.1029  1.5848  0.0263
 3485SOL    HW211897   7.871   5.449   5.579 -0.2571  0.9350  0.6469
 3486SOL     OW11898   1.601   4.224   6.253 -0.9714  0.1675 -0.0858
 3486SOL    HW111899   1.509   4.199   6.259  0.0179 -4.3770 -0.2490
 3486SOL    HW211900   1.646   4.166   6.314  1.8462  2.3100  0.0757
 3487SOL     OW11901   1.173   5.550   5.712  0.2070 -0.1154 -0.1853
 3487SOL    HW111902   1.267   5.566   5.703  0.4057 -1.4475 -0.7575
 3487SOL    HW211903   1.132   5.636   5.696  1.2878  0.3465 -0.5494
 3488SOL     OW11904   7.130   3.225   8.494 -0.2335  0.2043 -0.0436
 3488SOL    HW111905   7.215   3.207   8.535  0.7736  3.0618 -0.6260
 3488SOL    HW211906   7.119   3.156   8.429  0.0317 -2.1095  2.2069
 3489SOL     OW11907   7.827   6.019   7.371 -0.6072  0.3278 -0.2506
 3489SOL    HW111908   7.810   6.096   7.316 -1.8172 -0.3997 -0.9589
 3489SOL    HW211909   7.903   5.978   7.332  0.4036  1.4352  0.4703
 3490SOL     OW11910   0.651   5.029   6.283 -0.5698  0.7184  0.1340
 3490SOL    HW111911   0.600   5.094   6.235  0.4410  2.5964  1.4330
 3490SOL    HW211912   0.736   5.030   6.241 -1.6516 -3.0581 -2.6040
 3491SOL     OW11913   7.803   3.273   7.048  0.0447  0.2309  0.5696
 3491SOL    HW111914   7.844   3.239   7.127 -0.0613  2.4662  1.6682
 3491SOL    HW211915   7.872   3.327   7.007 -0.2374 -0.0537 -0.2970
 3492SOL     OW11916   2.487   6.478   3.552 -0.0827 -0.0523 -0.1090
 3492SOL    HW111917   2.498   6.418   3.626 -1.4786  0.4704  0.5641
 3492SOL    HW211918   2.419   6.539   3.581 -0.9250 -0.0496 -1.9715
 3493SOL     OW11919   0.303   4.573   5.587  0.2509  0.3199 -0.0185
 3493SOL    HW111920   0.270   4.529   5.665  0.4809  1.0269  0.4940
 3493SOL    HW211921   0.354   4.646   5.621 -0.3682  1.1646 -0.8520
 3494SOL     OW11922   2.390   4.520   6.594 -0.1647 -0.0231 -0.1635
 3494SOL    HW111923   2.423   4.599   6.636 -1.4558  0.7210 -0.4806
 3494SOL    HW211924   2.358   4.549   6.509 -1.8517 -0.6117  0.2290
 3495SOL     OW11925   0.898   6.062   7.642 -0.3646 -0.5487 -0.2724
 3495SOL    HW111926   0.945   5.998   7.696  0.4470  0.7937  0.6885
 3495SOL    HW211927   0.806   6.037   7.650  0.0231 -2.4182 -1.0737
 3496SOL     OW11928   5.488   4.618   8.208 -0.2032  0.0765  0.1505
 3496SOL    HW111929   5.490   4.580   8.120 -1.6592 -0.0435  0.1446
 3496SOL    HW211930   5.397   4.641   8.222 -0.3156 -1.3803  2.2630
 3497SOL     OW11931   6.648   3.338   7.368  0.4585 -0.5686 -0.5639
 3497SOL    HW111932   6.687   3.252   7.364  1.2942 -0.2915  0.9337
 3497SOL    HW211933   6.642   3.367   7.277  0.6539 -1.9752 -1.0341
 3498SOL     OW11934   7.613   6.094   5.717  0.0149 -0.4551 -0.6744
 3498SOL    HW111935   7.554   6.139   5.776 -1.4534 -1.2277 -1.4927
 3498SOL    HW211936   7.591   6.001   5.727  1.2680 -0.7953 -0.8274
 3499SOL     OW11937   0.154   2.727   5.520 -0.3667 -0.7141 -0.1431
 3499SOL    HW111938   0.113   2.712   5.606  2.6998 -1.7934  1.2961
 3499SOL    HW211939   0.081   2.727   5.458 -2.6280 -0.9511  2.3272
 3500SOL     OW11940   7.680   4.566   6.172 -0.0011 -0.2853 -0.3566
 3500SOL    HW111941   7.637   4.578   6.087 -0.1024 -1.0802 -0.4235
 3500SOL    HW211942   7.773   4.555   6.150  0.2530  1.3099 -0.2206
 3501SOL     OW11943   1.067   5.739   6.459  0.5571 -0.0103 -0.1137
 3501SOL    HW111944   1.032   5.698   6.380 -0.5905  0.8734 -0.0863
 3501SOL    HW211945   1.140   5.793   6.427 -0.1814  0.6988 -0.6560
 3502SOL     OW11946   0.890   5.699   7.006 -0.3231  0.2233  0.2384
 3502SOL    HW111947   0.894   5.662   7.095 -2.6863 -1.2468 -0.1776
 3502SOL    HW211948   0.922   5.629   6.950  0.2910  0.8241 -0.1786
 3503SOL     OW11949   2.691   2.538   9.523 -0.4926 -0.5203 -0.1296
 3503SOL    HW111950   2.692   2.530   9.428  0.6495  0.0801 -0.1877
 3503SOL    HW211951   2.693   2.448   9.555  2.6389 -0.7771 -0.7238
 3504SOL     OW11952   0.922   6.129   6.247 -0.2715  0.0500 -0.1494
 3504SOL    HW111953   0.937   6.184   6.324  0.9190  0.1190 -0.4114
 3504SOL    HW211954   0.879   6.187   6.184 -0.9676  0.0750  0.3306
 3505SOL     OW11955   1.351   6.383   5.701 -0.2478 -0.5436 -0.4485
 3505SOL    HW111956   1.285   6.451   5.696  0.7635  0.5276  0.1368
 3505SOL    HW211957   1.334   6.327   5.625 -2.0288 -0.5235 -0.1048
 3506SOL     OW11958   1.322   4.459   6.128 -0.2799  0.1189  0.0974
 3506SOL    HW111959   1.371   4.469   6.210 -0.7883  0.1837  0.3964
 3506SOL    HW211960   1.264   4.535   6.125 -2.0058 -1.1107  0.8905
 3507SOL     OW11961   0.277   3.254   6.034  0.5232  0.1562 -0.3488
 3507SOL    HW111962   0.278   3.347   6.014 -0.2552  0.7677  2.1830
 3507SOL    HW211963   0.184   3.233   6.049  0.5707 -1.2616 -1.7637
 3508SOL     OW11964   2.957   6.310   5.911  0.2595  0.1575 -0.2301
 3508SOL    HW111965   2.929   6.325   6.002 -0.0034 -0.8955 -0.1282
 3508SOL    HW211966   2.948   6.216   5.898  2.1388  0.0153 -0.7582
 3509SOL     OW11967   0.250   4.532   8.600 -0.0896 -0.4933  0.3264
 3509SOL    HW111968   0.283   4.615   8.565  0.6989 -0.9127  0.0536
 3509SOL    HW211969   0.250   4.545   8.695 -0.0906 -0.1323  0.2777
 3510SOL     OW11970   2.422   2.355   5.763  0.2761  0.1929  0.6406
 3510SOL    HW111971   2.356   2.414   5.799  0.3887 -0.4791  2.0474
 3510SOL    HW211972   2.469   2.323   5.840  0.8407 -0.9858 -0.1631
 3511SOL     OW11973   0.714   3.130   6.693  0.7096 -0.2004  0.5360
 3511SOL    HW111974   0.658   3.193   6.649  2.1180  2.0461  1.7628
 3511SOL    HW211975   0.653   3.069   6.734 -0.8292  1.4544  0.8606
 3512SOL     OW11976   7.483   4.668   7.544  0.4101  0.0963  0.1192
 3512SOL    HW111977   7.480   4.748   7.492  1.5822 -0.2380 -0.5053
 3512SOL    HW211978   7.539   4.689   7.618  1.6117 -0.4280 -0.6073
 3513SOL     OW11979   7.701   2.662   5.081 -0.6447  0.2858  0.2766
 3513SOL    HW111980   7.695   2.741   5.135  0.5032  1.5116 -1.3055
 3513SOL    HW211981   7.610   2.640   5.061 -0.9915  2.9511 -1.6268
 3514SOL     OW11982   7.219   5.446   8.341  0.1831 -0.4555 -0.0159
 3514SOL    HW111983   7.174   5.390   8.278 -1.7727  1.0096 -0.0352
 3514SOL    HW211984   7.152   5.464   8.408  1.1403  0.7687  0.6556
 3515SOL     OW11985   6.841   5.967   8.866  0.2783 -0.3436 -0.2531
 3515SOL    HW111986   6.855   5.891   8.809 -1.2065 -1.0372  0.2633
 3515SOL    HW211987   6.929   5.999   8.884  0.9044 -1.5006 -1.0699
 3516SOL     OW11988   2.056   5.158   5.278 -0.1603 -0.0706 -0.2606
 3516SOL    HW111989   2.020   5.190   5.195  0.2289  0.4864 -0.2180
 3516SOL    HW211990   2.138   5.205   5.288 -0.6934  0.6187  0.9403
 3517SOL     OW11991   3.387   4.748   8.231 -0.1209 -0.3260  0.1454
 3517SOL    HW111992   3.292   4.749   8.232 -0.4196 -2.9270 -3.4267
 3517SOL    HW211993   3.411   4.783   8.145  2.1974  0.3513  0.9848
 3518SOL     OW11994   1.631   5.413   3.988 -0.3233 -0.0213 -0.8397
 3518SOL    HW111995   1.536   5.406   3.982 -0.4864  1.8937 -1.0520
 3518SOL    HW211996   1.661   5.411   3.897 -0.3428  1.2477 -0.8861
 3519SOL     OW11997   0.261   2.204   7.377 -0.3067 -0.0140 -0.0295
 3519SOL    HW111998   0.295   2.130   7.328  0.0056  0.9348 -1.2930
 3519SOL    HW211999   0.238   2.269   7.311 -2.9905  0.0872  0.8611
 3520SOL     OW12000   7.876   4.424   7.186  0.5854  0.0542 -0.0958
 3520SOL    HW112001   7.812   4.354   7.182  0.9804 -0.4169  1.2401
 3520SOL    HW212002   7.840   4.486   7.250  0.0218  1.3237 -1.5963
 3521SOL     OW12003   7.014   3.770   5.864 -0.0883  1.0053 -0.0131
 3521SOL    HW112004   7.018   3.855   5.820  0.1289  0.9355 -0.1308
 3521SOL    HW212005   7.089   3.722   5.830 -1.7333 -0.2807 -2.1140
 3522SOL     OW12006   0.783   5.802   5.906  0.3092  0.0083  0.1367
 3522SOL    HW112007   0.763   5.842   5.991  0.7700  0.5300  0.0041
 3522SOL    HW212008   0.763   5.709   5.918 -1.4384  0.3663  0.2397
 3523SOL     OW12009   1.385   5.839   6.140  0.2366 -0.1640 -0.0404
 3523SOL    HW112010   1.304   5.846   6.191  0.3169 -0.4120  0.1228
 3523SOL    HW212011   1.358   5.857   6.050 -0.5389 -2.9911 -0.4715
 3524SOL     OW12012   0.135   5.781   5.184  0.0432  0.3368  0.0930
 3524SOL    HW112013   0.069   5.841   5.219 -1.0294 -0.2807 -0.7962
 3524SOL    HW212014   0.142   5.712   5.249 -0.5354  0.1794 -0.0012
 3525SOL     OW12015   0.861   4.581   5.801  1.0537 -0.2349 -0.8920
 3525SOL    HW112016   0.793   4.622   5.855  0.9840  0.5097 -1.5277
 3525SOL    HW212017   0.939   4.634   5.816  1.3946 -0.8514 -0.4683
 3526SOL     OW12018   0.916   4.106   7.294 -0.1909 -0.3088 -0.3772
 3526SOL    HW112019   0.887   4.197   7.297 -1.2233 -0.6425  0.3657
 3526SOL    HW212020   0.836   4.055   7.304  0.6128 -1.2688  1.8213
 3527SOL     OW12021   0.707   3.421   6.285 -0.0535  0.0143  0.3659
 3527SOL    HW112022   0.795   3.396   6.313  0.5597  0.9193 -0.6681
 3527SOL    HW212023   0.695   3.375   6.202 -1.6841 -2.3082  1.7525
 3528SOL     OW12024   7.806   3.763   5.930  0.4456  0.0071 -0.1975
 3528SOL    HW112025   7.873   3.738   5.867  0.6627 -1.4458  0.5881
 3528SOL    HW212026   7.848   3.758   6.015  0.3435  2.5908  0.0954
 3529SOL     OW12027   1.710   4.371   5.142 -0.6872  0.4268  0.3866
 3529SOL    HW112028   1.720   4.466   5.157  0.5831  0.2353  0.8391
 3529SOL    HW212029   1.779   4.331   5.195 -1.6215 -0.8019  0.7118
 3530SOL     OW12030   1.632   5.891   4.735  0.0255 -0.2634  0.4963
 3530SOL    HW112031   1.590   5.959   4.789 -0.5158 -0.9342  0.9360
 3530SOL    HW212032   1.686   5.940   4.673 -1.6673  0.6743 -0.3247
 3531SOL     OW12033   0.627   3.573   5.072  0.1404 -0.4174 -0.4047
 3531SOL    HW112034   0.576   3.525   5.137 -2.1873  0.3422 -1.5625
 3531SOL    HW212035   0.647   3.509   5.004 -2.6634 -0.0263 -1.7764
 3532SOL     OW12036   7.715   2.409   7.433  0.6341 -0.0041 -0.6215
 3532SOL    HW112037   7.666   2.475   7.384  1.3320  0.4006 -0.7848
 3532SOL    HW212038   7.734   2.340   7.370  1.4112  0.4518 -0.8977
 3533SOL     OW12039   1.657   4.978   5.687  0.2869 -0.7901 -0.3703
 3533SOL    HW112040   1.566   4.964   5.662 -0.1843 -2.4234  1.9506
 3533SOL    HW212041   1.664   4.942   5.776  2.8990  0.4350  0.0229
 3534SOL     OW12042   7.617   2.468   5.459  0.6048 -0.2295  0.5947
 3534SOL    HW112043   7.549   2.475   5.391  0.0592  0.1527  1.1725
 3534SOL    HW212044   7.699   2.472   5.410  0.2352  0.9931  0.0272
 3535SOL     OW12045   1.087   4.660   7.323  0.0415 -0.2141  0.4138
 3535SOL    HW112046   0.996   4.688   7.319  0.6701  1.9391 -2.2096
 3535SOL    HW212047   1.099   4.607   7.243  0.9045 -1.2166  1.1747
 3536SOL     OW12048   0.866   4.015   6.790 -0.6150 -0.2256 -0.1937
 3536SOL    HW112049   0.946   4.067   6.783 -0.6475 -0.1304  0.1160
 3536SOL    HW212050   0.795   4.077   6.773 -0.5999 -0.4354 -1.0524
 3537SOL     OW12051   0.841   3.145   6.141 -0.1385 -0.3033 -0.4868
 3537SOL    HW112052   0.932   3.118   6.145  0.8561  2.6658 -0.1239
 3537SOL    HW212053   0.817   3.164   6.232 -0.3875  0.9490 -0.7922
 3538SOL     OW12054   1.235   3.625   6.376 -0.5344  0.0345 -0.0840
 3538SOL    HW112055   1.291   3.555   6.342 -0.0993  0.2090  0.2716
 3538SOL    HW212056   1.153   3.614   6.328 -0.2470 -0.3056 -0.5130
 3539SOL     OW12057   1.806   2.555   5.889 -0.0239  0.4186 -0.2875
 3539SOL    HW112058   1.888   2.570   5.937 -0.1737 -0.2404  0.1924
 3539SOL    HW212059   1.739   2.595   5.944  0.0376  1.5009 -0.9830
 3540SOL     OW12060   0.910   6.755   6.794 -0.0916 -0.2816  0.3201
 3540SOL    HW112061   0.825   6.786   6.762 -0.2161  1.9607  2.5466
 3540SOL    HW212062   0.973   6.788   6.731 -0.4328  2.9023  1.4939
 3541SOL     OW12063   0.759   2.994   7.163  0.6842 -0.1415  0.1522
 3541SOL    HW112064   0.776   3.066   7.101  0.2548  0.4481  0.7099
 3541SOL    HW212065   0.684   3.024   7.214 -0.8635 -1.8861 -0.9894
 3542SOL     OW12066   0.223   3.229   8.125 -0.0650  0.5927 -0.8215
 3542SOL    HW112067   0.129   3.212   8.116 -0.1222 -0.0798  0.7238
 3542SOL    HW212068   0.230   3.293   8.196  0.7650 -2.6064  2.2618
 3543SOL     OW12069   0.880   5.031   6.137  0.6229  0.2470 -0.0620
 3543SOL    HW112070   0.908   5.094   6.070 -0.2333  0.7805  0.0632
 3543SOL    HW212071   0.956   4.974   6.150  1.6858  1.6838  0.3306
 3544SOL     OW12072   1.850   3.996   6.232 -0.3887  0.5779 -0.3645
 3544SOL    HW112073   1.944   4.007   6.221 -0.7936  2.9830 -2.2861
 3544SOL    HW212074   1.827   4.057   6.302 -0.5740  0.3085 -0.1906
 3545SOL     OW12075   5.213   5.003   6.018  0.0544  0.1630 -0.4653
 3545SOL    HW112076   5.297   4.958   6.018 -0.4758 -0.8592 -0.9988
 3545SOL    HW212077   5.166   4.967   5.943 -0.8464  0.7405 -0.1978
 3546SOL     OW12078   7.341   4.824   6.886 -0.1328  0.3140 -0.2308
 3546SOL    HW112079   7.291   4.742   6.884  1.1024 -0.5044  1.1762
 3546SOL    HW212080   7.376   4.833   6.797 -0.3887 -0.6120 -0.4354
 3547SOL     OW12081   1.298   6.504   5.306  0.0657 -0.4568 -0.2289
 3547SOL    HW112082   1.343   6.559   5.242  2.3298 -2.5922 -0.6327
 3547SOL    HW212083   1.331   6.415   5.288 -2.1716 -1.7097  1.4199
 3548SOL     OW12084   0.568   5.415   6.220 -0.0278  0.4018  0.5317
 3548SOL    HW112085   0.575   5.460   6.135  0.4026 -0.1682  0.2568
 3548SOL    HW212086   0.534   5.328   6.198  0.3885  0.1426  0.9061
 3549SOL     OW12087   7.631   4.500   5.271  0.6281  0.1128 -0.2413
 3549SOL    HW112088   7.621   4.591   5.298  1.5509 -0.0898  0.8612
 3549SOL    HW212089   7.701   4.466   5.326  1.3989 -0.8318 -1.7282
 3550SOL     OW12090   1.111   4.738   5.817 -0.4151  0.1789  0.0649
 3550SOL    HW112091   1.079   4.821   5.780 -1.2665 -0.7332 -1.3435
 3550SOL    HW212092   1.190   4.718   5.766 -0.1692  0.1565  0.4534
 3551SOL     OW12093   7.017   2.869   8.459  0.3368  0.4469 -0.1933
 3551SOL    HW112094   7.069   2.829   8.529  0.1262 -0.2461 -0.4228
 3551SOL    HW212095   7.061   2.843   8.378  0.5234  1.1672 -0.3268
 3552SOL     OW12096   0.134   2.657   7.928 -0.3215  0.1963  0.1170
 3552SOL    HW112097   0.042   2.666   7.905 -0.5684 -0.2059  0.9241
 3552SOL    HW212098   0.162   2.576   7.886  0.0554  1.0249 -1.3059
 3553SOL     OW12099   1.551   5.328   6.006 -0.3015  0.2282  0.1874
 3553SOL    HW112100   1.609   5.404   6.001  0.2797  0.0311  2.6880
 3553SOL    HW212101   1.473   5.354   5.957 -0.0146  2.3532  0.7582
 3554SOL     OW12102   0.821   1.359   8.410 -0.5521  0.0886  0.1191
 3554SOL    HW112103   0.781   1.297   8.350  0.3330 -0.2504 -0.1342
 3554SOL    HW212104   0.847   1.307   8.485 -0.0143  0.1858  0.0055
 3555SOL     OW12105   0.946   3.893   7.042 -0.0337 -0.4358  0.3325
 3555SOL    HW112106   0.920   3.939   6.963  1.7273  1.6195  0.8427
 3555SOL    HW212107   0.866   3.850   7.073 -1.0114 -0.3313 -1.9030
 3556SOL     OW12108   0.084   5.278   7.156  0.3653 -0.1977 -0.5726
 3556SOL    HW112109   0.156   5.338   7.138  0.3413 -0.5308 -1.8355
 3556SOL    HW212110   0.019   5.331   7.202  1.5463  0.0219  0.9238
 3557SOL     OW12111   1.065   3.941   6.357  0.2897  0.2449  0.5043
 3557SOL    HW112112   0.985   3.994   6.348  0.4855  0.4672 -0.0220
 3557SOL    HW212113   1.036   3.851   6.344  0.0486  0.2787  0.7951
 3558SOL     OW12114   7.568   3.878   4.882  0.7665 -0.0050  0.1534
 3558SOL    HW112115   7.601   3.827   4.956 -0.1114 -1.4217 -0.3906
 3558SOL    HW212116   7.643   3.887   4.824  1.3098  0.6061  0.9251
 3559SOL     OW12117   0.659   6.830   6.660 -0.2025 -0.5464 -0.2383
 3559SOL    HW112118   0.681   6.766   6.592 -1.0197 -0.0074 -1.0382
 3559SOL    HW212119   0.574   6.865   6.633 -0.4962 -0.2313  1.0077
 3560SOL     OW12120   0.813   4.531   7.024 -0.2643 -0.4791  0.1695
 3560SOL    HW112121   0.902   4.557   6.999 -0.7254  0.6915 -0.3342
 3560SOL    HW212122   0.760   4.611   7.011 -1.6744 -1.5529 -1.0408
 3561SOL     OW12123   0.079   4.239   5.254 -0.5159  0.1201  0.3180
 3561SOL    HW112124   0.169   4.240   5.286 -0.5319  0.6165  0.3619
 3561SOL    HW212125   0.048   4.151   5.273  0.8634 -1.0270 -2.2802
 3562SOL     OW12126   0.341   4.815   8.502 -0.1758 -0.1435  0.5719
 3562SOL    HW112127   0.277   4.845   8.437 -0.6674 -2.4388 -0.0894
 3562SOL    HW212128   0.421   4.863   8.481 -0.4133 -0.5845 -1.5691
 3563SOL     OW12129   0.292   5.458   7.143 -0.6091 -0.0320 -0.0547
 3563SOL    HW112130   0.329   5.546   7.136  1.2669 -0.7842 -0.2946
 3563SOL    HW212131   0.290   5.440   7.236  0.2399 -0.1980 -0.0577
 3564SOL     OW12132   0.524   5.807   7.254  0.6717 -0.4777  0.0568
 3564SOL    HW112133   0.548   5.899   7.244 -0.6052 -0.1923 -0.5905
 3564SOL    HW212134   0.589   5.771   7.314  1.0671  0.8937  0.4758
 3565SOL     OW12135   1.274   6.017   7.166  0.0977  0.1968 -0.7275
 3565SOL    HW112136   1.218   5.952   7.124  0.1028  0.3045 -0.9032
 3565SOL    HW212137   1.353   6.019   7.112  0.4990 -0.3447 -0.1754
 3566SOL     OW12138   3.342   6.242   5.385  0.4575 -0.2117 -0.4738
 3566SOL    HW112139   3.364   6.149   5.394  2.0600  0.2360  0.9321
 3566SOL    HW212140   3.363   6.279   5.471  2.2508  1.8948 -1.7137
 3567SOL     OW12141   1.893   2.352   8.736 -0.3663  0.5946 -0.0198
 3567SOL    HW112142   1.833   2.289   8.698 -1.1808  0.2486  1.7273
 3567SOL    HW212143   1.906   2.418   8.668 -1.6690 -0.0277 -0.8991
 3568SOL     OW12144   1.807   4.498   6.896 -0.1734  0.0737 -0.3348
 3568SOL    HW112145   1.872   4.442   6.853 -0.7899 -1.4665  0.6433
 3568SOL    HW212146   1.752   4.437   6.945  0.7798  1.6631  3.0512
 3569SOL     OW12147   1.125   4.042   5.650 -0.2150 -0.0555  0.5292
 3569SOL    HW112148   1.150   4.112   5.589 -3.0645  1.6877  1.1765
 3569SOL    HW212149   1.086   3.974   5.595  0.3988 -0.0852  0.1204
 3570SOL     OW12150   0.967   4.599   6.462  0.1840  0.2806  0.0621
 3570SOL    HW112151   1.044   4.629   6.510 -0.1092 -0.9106  1.3573
 3570SOL    HW212152   0.893   4.622   6.519 -0.1284 -1.7896  0.5896
 3571SOL     OW12153   0.128   3.684   6.061  0.0585  0.2856  0.1126
 3571SOL    HW112154   0.085   3.668   6.145  0.4795 -0.8122  0.1359
 3571SOL    HW212155   0.218   3.654   6.074  0.8575  2.4167  0.0302
 3572SOL     OW12156   0.121   5.690   5.870  0.2546  0.6210 -0.9383
 3572SOL    HW112157   0.027   5.706   5.881  0.6005  2.2296  0.0508
 3572SOL    HW212158   0.154   5.683   5.959  0.8316 -1.7913 -1.2901
 3573SOL     OW12159   7.869   3.349   6.187 -0.3000 -0.6004  0.0389
 3573SOL    HW112160   7.909   3.424   6.231 -1.6628  0.2487 -0.1024
 3573SOL    HW212161   7.856   3.284   6.257 -1.8525  0.4852  0.8167
 3574SOL     OW12162   0.183   3.080   6.445  0.4100 -0.1280  0.1996
 3574SOL    HW112163   0.239   3.126   6.382 -0.7039  1.4336  0.3097
 3574SOL    HW212164   0.133   3.018   6.391  0.7786 -0.1051 -0.1749
 3575SOL     OW12165   7.137   6.635   5.150  0.3924 -0.0731  0.3394
 3575SOL    HW112166   7.071   6.578   5.111 -0.2869 -0.0857  1.4612
 3575SOL    HW212167   7.169   6.587   5.226  0.2100  0.7849  0.9779
 3576SOL     OW12168   1.652   3.517   5.911  0.0419  0.3668  0.1150
 3576SOL    HW112169   1.588   3.584   5.937 -1.2449 -0.4401 -0.8543
 3576SOL    HW212170   1.682   3.545   5.825 -0.9125 -0.5490 -0.5380
 3577SOL     OW12171   0.829   4.763   8.008 -0.5766  0.1864  0.4231
 3577SOL    HW112172   0.789   4.736   7.926  0.0728  1.8035 -0.4774
 3577SOL    HW212173   0.890   4.692   8.029 -0.5937 -0.1528 -0.6135
 3578SOL     OW12174   0.643   5.252   7.749 -0.5866  0.1215  0.6124
 3578SOL    HW112175   0.702   5.263   7.824  0.3135 -0.0474 -0.0520
 3578SOL    HW212176   0.691   5.194   7.690 -0.5777  1.5558 -0.8385
 3579SOL     OW12177   0.136   4.646   8.231  0.0230 -0.0733  0.0578
 3579SOL    HW112178   0.119   4.733   8.267  2.3485 -0.5581  2.6867
 3579SOL    HW212179   0.209   4.659   8.170 -1.5208  0.1526 -1.8783
 3580SOL     OW12180   7.853   4.019   7.243 -0.3885 -0.0026 -0.3211
 3580SOL    HW112181   7.775   4.073   7.255  0.0537  0.1302  2.7537
 3580SOL    HW212182   7.850   3.992   7.152 -2.7875  1.8769 -0.8912
 3581SOL     OW12183   0.228   3.789   7.411  0.2124  0.4854  0.0217
 3581SOL    HW112184   0.235   3.857   7.345  1.6487 -0.3552 -0.7578
 3581SOL    HW212185   0.319   3.762   7.427 -0.3369 -1.7690 -0.2875
 3582SOL     OW12186   7.044   5.193   5.039  0.0764  0.1419  0.0658
 3582SOL    HW112187   7.062   5.217   4.948 -1.2875  1.6852  0.1631
 3582SOL    HW212188   7.043   5.097   5.039  0.8373  0.1121 -1.3807
 3583SOL     OW12189   7.827   2.390   5.307  0.4489 -0.1720 -0.4792
 3583SOL    HW112190   7.882   2.412   5.232 -0.5090  0.9413 -0.8891
 3583SOL    HW212191   7.888   2.356   5.373  1.7653  1.7770 -0.6140
 3584SOL     OW12192   2.458   3.883   4.606  0.1922 -0.1739  0.1273
 3584SOL    HW112193   2.426   3.820   4.672  0.4245 -0.9171 -0.4581
 3584SOL    HW212194   2.546   3.905   4.636  0.2074 -0.3231  0.1962
 3585SOL     OW12195   1.288   2.652   6.592 -0.1052  0.5299  0.2058
 3585SOL    HW112196   1.303   2.558   6.587  3.3185  0.9895 -0.3978
 3585SOL    HW212197   1.223   2.663   6.662 -0.5570 -2.2301  0.3127
 3586SOL     OW12198   7.318   3.636   6.452 -0.0333 -0.1048 -0.2424
 3586SOL    HW112199   7.252   3.701   6.477 -1.6136 -0.8813 -2.1205
 3586SOL    HW212200   7.399   3.686   6.441 -1.4323  1.8587 -2.7049
 3587SOL     OW12201   1.107   3.416   6.750 -0.3109 -0.6595  0.0728
 3587SOL    HW112202   1.155   3.387   6.672 -0.6288 -1.0026  0.0027
 3587SOL    HW212203   1.036   3.470   6.716  1.5052  2.0573  0.3002
 3588SOL     OW12204   2.088   2.272   5.795  0.0362 -0.2688 -0.2266
 3588SOL    HW112205   1.993   2.276   5.799 -0.0238 -0.9186 -0.7855
 3588SOL    HW212206   2.113   2.340   5.732  0.0386  0.7493  0.8513
 3589SOL     OW12207   6.580   3.959   5.321  0.3669 -0.0987 -0.3916
 3589SOL    HW112208   6.524   3.882   5.312 -0.1291  0.2445 -0.2755
 3589SOL    HW212209   6.539   4.010   5.391  1.2057 -0.1702  0.1606
 3590SOL     OW12210   0.080   4.225   5.776 -0.0818 -0.0425 -0.4281
 3590SOL    HW112211   0.043   4.141   5.805 -0.3454  0.2845  0.1924
 3590SOL    HW212212   0.014   4.262   5.718 -0.5078  0.3086  0.2811
 3591SOL     OW12213   7.893   4.426   6.488 -0.0831 -0.0248 -0.0015
 3591SOL    HW112214   7.975   4.377   6.485  0.4050  0.7872 -2.3942
 3591SOL    HW212215   7.827   4.364   6.456 -0.3348 -0.5015  1.3848
 3592SOL     OW12216   0.081   6.277   7.285  0.3026 -0.8971  0.2307
 3592SOL    HW112217   0.082   6.216   7.211  1.4972 -1.3731  0.6188
 3592SOL    HW212218   0.071   6.363   7.244 -2.4736 -1.3772 -0.2576
 3593SOL     OW12219   1.347   3.377   6.278 -0.2235  0.0027  0.0192
 3593SOL    HW112220   1.362   3.429   6.200  0.5468  1.2541  0.9497
 3593SOL    HW212221   1.383   3.291   6.257 -0.3394  0.2176 -1.1099
 3594SOL     OW12222   7.642   3.836   6.907 -0.2334 -0.4478 -0.3165
 3594SOL    HW112223   7.568   3.838   6.847 -1.8323  0.5779  1.5436
 3594SOL    HW212224   7.601   3.827   6.994  1.8684 -0.5428  0.7190
 3595SOL     OW12225   2.797   3.553   5.661 -0.1824 -0.0952 -0.2712
 3595SOL    HW112226   2.875   3.504   5.636  1.6155  2.5067 -0.1859
 3595SOL    HW212227   2.797   3.550   5.757 -0.4671 -0.4661 -0.2803
 3596SOL     OW12228   2.866   4.736   5.469 -0.2715  0.4532 -0.0454
 3596SOL    HW112229   2.868   4.787   5.389 -1.7349  0.9244  0.1949
 3596SOL    HW212230   2.782   4.691   5.467  0.6496 -1.4041  0.1059
 3597SOL     OW12231   0.519   5.399   4.988 -0.0942 -0.8707  0.5195
 3597SOL    HW112232   0.466   5.478   4.998 -0.8610 -1.2012 -0.7732
 3597SOL    HW212233   0.605   5.424   5.022 -0.1688  0.6813 -0.3289
 3598SOL     OW12234   7.490   5.521   6.263  0.3479  0.1702  0.2762
 3598SOL    HW112235   7.458   5.524   6.173 -0.5894  2.1965  0.6123
 3598SOL    HW212236   7.578   5.483   6.257 -0.1276 -0.7287 -1.3294
 3599SOL     OW12237   0.395   5.066   5.744  0.1517 -0.1500  0.2645
 3599SOL    HW112238   0.420   5.156   5.726  0.1935  0.1499  1.7254
 3599SOL    HW212239   0.300   5.065   5.739  0.1620 -0.0749  0.0472
 3600SOL     OW12240   0.675   2.298   7.064 -0.6637  0.6282  0.5616
 3600SOL    HW112241   0.666   2.386   7.100 -1.0024  1.0464 -0.4896
 3600SOL    HW212242   0.586   2.271   7.043 -0.5817 -0.0617  1.0691
 3601SOL     OW12243   1.844   2.781   6.987  0.1422  0.4144 -0.1788
 3601SOL    HW112244   1.918   2.726   7.011  0.4795  0.0575 -1.9540
 3601SOL    HW212245   1.848   2.854   7.049  2.5060  0.8623 -0.7661
 3602SOL     OW12246   0.544   5.792   5.112  0.5263 -0.2343  0.8202
 3602SOL    HW112247   0.516   5.771   5.201 -1.0071  0.3175  0.5027
 3602SOL    HW212248   0.477   5.754   5.056  1.0846  0.0482 -0.0556
 3603SOL     OW12249   0.062   6.630   7.830  0.4583  0.5978  0.4504
 3603SOL    HW112250   0.005   6.554   7.842 -0.0746  0.6381 -1.4493
 3603SOL    HW212251   0.003   6.705   7.825  0.1943  0.3890 -4.0954
 3604SOL     OW12252   1.398   4.748   7.162  0.0958  0.0641  0.7278
 3604SOL    HW112253   1.336   4.678   7.181 -0.4397  0.3389  0.0635
 3604SOL    HW212254   1.406   4.748   7.066  0.0542  0.9231  0.7109
 3605SOL     OW12255   7.645   5.580   6.656 -0.3929  0.6694  0.1687
 3605SOL    HW112256   7.579   5.598   6.589 -1.4035  0.4855  1.0823
 3605SOL    HW212257   7.679   5.494   6.633 -0.9300  0.4858  0.0367
 3606SOL     OW12258   5.589   4.245   7.415  0.5407  0.1372  0.5845
 3606SOL    HW112259   5.529   4.202   7.476 -0.7555 -0.7069 -1.1840
 3606SOL    HW212260   5.618   4.324   7.461  1.7295 -1.7277  3.3131
 3607SOL     OW12261   6.951   3.757   7.376  0.5024  0.1939  0.0911
 3607SOL    HW112262   7.004   3.679   7.364  0.1250 -0.4093  2.0380
 3607SOL    HW212263   6.861   3.724   7.382  0.4394  0.6197  2.0105
 3608SOL     OW12264   0.416   4.126   8.234 -0.0166  0.1576  0.1348
 3608SOL    HW112265   0.404   4.139   8.328  1.6571 -0.4954  0.4806
 3608SOL    HW212266   0.359   4.191   8.193 -0.5226  0.6785  1.6004
 3609SOL     OW12267   2.072   4.355   6.912 -0.7690  0.1068  0.4053
 3609SOL    HW112268   2.159   4.364   6.950  0.0304  0.9451 -1.5045
 3609SOL    HW212269   2.087   4.355   6.818 -2.9171  1.3778 -0.0029
 3610SOL     OW12270   1.344   5.422   5.891  0.0303  0.0418 -0.0741
 3610SOL    HW112271   1.304   5.496   5.845  2.3293  0.7692 -1.0993
 3610SOL    HW212272   1.344   5.351   5.827 -0.0302 -0.0872  0.0680
 3611SOL     OW12273   1.024   3.608   8.311 -0.3532  0.2560 -0.1644
 3611SOL    HW112274   0.975   3.677   8.267 -0.9928 -0.6137 -0.8370
 3611SOL    HW212275   1.111   3.646   8.324 -1.4730  2.3730  2.3071
 3612SOL     OW12276   0.637   3.503   7.667 -0.5083  0.6402  0.3107
 3612SOL    HW112277   0.664   3.431   7.609  1.3307  1.2937  0.3057
 3612SOL    HW212278   0.583   3.559   7.611  0.9933  1.0981 -0.7496
 3613SOL     OW12279   7.635   4.807   7.216 -0.4146  0.4232  0.2807
 3613SOL    HW112280   7.678   4.828   7.133 -0.1072 -0.4838  0.2017
 3613SOL    HW212281   7.543   4.792   7.193 -0.2197 -0.3836  0.0104
 3614SOL     OW12282   0.499   5.365   5.727  0.0214  0.2325 -0.0081
 3614SOL    HW112283   0.576   5.334   5.775  0.3031 -0.1163 -0.6823
 3614SOL    HW212284   0.477   5.448   5.770 -0.9841 -1.0358  2.0989
 3615SOL     OW12285   7.477   2.939   6.417  0.4994 -0.5826 -0.8668
 3615SOL    HW112286   7.416   2.870   6.444 -1.7676  0.8261 -2.0622
 3615SOL    HW212287   7.513   2.971   6.500 -1.3567 -0.6659  0.0431
 3616SOL     OW12288   0.075   3.274   6.602  1.0275 -0.6170  0.7173
 3616SOL    HW112289   0.010   3.221   6.649  0.4463 -0.4500  0.1218
 3616SOL    HW212290   0.110   3.215   6.536 -1.3065  0.3144 -1.5177
 3617SOL     OW12291   0.362   5.129   5.443  0.0457  0.4416 -0.0951
 3617SOL    HW112292   0.286   5.082   5.408  1.4712 -0.7419 -1.7575
 3617SOL    HW212293   0.372   5.096   5.532  0.2414 -1.5173 -0.8036
 3618SOL     OW12294   2.058   5.870   7.239 -0.0515  0.2953 -0.4751
 3618SOL    HW112295   1.988   5.917   7.285 -0.8658 -1.0387 -0.2939
 3618SOL    HW212296   2.121   5.938   7.215 -1.0982  1.4436 -0.0754
 3619SOL     OW12297   1.006   6.682   5.438  0.4349  0.0367  0.1810
 3619SOL    HW112298   1.001   6.677   5.343 -1.9476 -2.6064  0.3156
 3619SOL    HW212299   0.945   6.752   5.462 -0.5762 -0.6879 -0.2064
 3620SOL     OW12300   7.785   6.269   5.562 -0.0722  0.6968  0.0652
 3620SOL    HW112301   7.721   6.203   5.589  0.8762  0.5661  2.2105
 3620SOL    HW212302   7.752   6.351   5.600  0.1981  0.9351 -0.2050
 3621SOL     OW12303   0.683   3.129   4.742 -0.1970 -0.5473 -0.8812
 3621SOL    HW112304   0.735   3.114   4.664  3.3701  2.3073  0.6350
 3621SOL    HW212305   0.708   3.059   4.803 -1.0950 -1.3460 -1.4085
 3622SOL     OW12306   1.128   2.558   6.219  0.2352 -0.8317  0.1039
 3622SOL    HW112307   1.207   2.610   6.207  0.0207 -0.5977 -0.3121
 3622SOL    HW212308   1.157   2.481   6.269  1.2354 -1.9580 -2.0519
 3623SOL     OW12309   1.824   4.614   6.059 -0.0739  0.3188 -0.1100
 3623SOL    HW112310   1.773   4.680   6.012 -1.2283 -1.2709 -1.1552
 3623SOL    HW212311   1.852   4.659   6.139 -2.2367  1.5748  0.0262
 3624SOL     OW12312   0.189   0.368   7.829  0.0612 -0.1823  0.2186
 3624SOL    HW112313   0.237   0.407   7.902 -0.5887 -0.8846  1.0410
 3624SOL    HW212314   0.255   0.320   7.779  0.2369 -1.1145  1.3172
 3625SOL     OW12315   2.175   4.251   6.434 -0.7231 -0.2012 -0.2279
 3625SOL    HW112316   2.109   4.275   6.369  1.2554 -0.3544 -2.4316
 3625SOL    HW212317   2.220   4.176   6.395  1.4398  0.5520  0.6926
 3626SOL     OW12318   1.186   4.693   7.604 -0.3062  0.3161  0.3982
 3626SOL    HW112319   1.151   4.649   7.526 -2.2357  1.5708  0.4976
 3626SOL    HW212320   1.186   4.626   7.672  0.4250 -0.5129 -0.3865
 3627SOL     OW12321   0.042   5.915   5.687 -0.2236 -0.0941  0.0751
 3627SOL    HW112322   0.018   5.976   5.757 -2.7965 -2.1801  1.1749
 3627SOL    HW212323   0.092   5.846   5.732  2.3274  0.8535 -1.0875
 3628SOL     OW12324   1.714   5.477   7.659 -0.3801 -0.2861 -0.0880
 3628SOL    HW112325   1.674   5.390   7.649 -0.1815 -0.3989  0.0899
 3628SOL    HW212326   1.786   5.477   7.596  1.2476 -1.2172  1.6864
 3629SOL     OW12327   1.956   3.830   7.079 -0.2746  0.0979 -0.3803
 3629SOL    HW112328   1.972   3.913   7.124  0.2367 -0.1311 -0.1378
 3629SOL    HW212329   1.987   3.844   6.989  1.5020 -0.3968  0.1261
 3630SOL     OW12330   7.043   3.179   5.796  0.2237  1.0435 -0.0670
 3630SOL    HW112331   6.965   3.234   5.790 -0.1177  0.6977  1.1456
 3630SOL    HW212332   7.030   3.111   5.729  0.1939  1.8326 -0.8915
 3631SOL     OW12333   1.490   5.189   5.140  0.1270  0.4459  0.1912
 3631SOL    HW112334   1.583   5.179   5.161  0.4355  0.5953 -1.0306
 3631SOL    HW212335   1.449   5.111   5.176  0.6437  0.6084  1.1670
 3632SOL     OW12336   1.821   3.971   4.684  0.0028 -0.0807 -0.1487
 3632SOL    HW112337   1.916   3.962   4.687 -0.0062 -0.3348 -0.5618
 3632SOL    HW212338   1.802   4.043   4.745  0.2413 -1.5203  1.7063
 3633SOL     OW12339   1.972   6.334   3.949 -0.0182 -0.1870 -0.8145
 3633SOL    HW112340   1.957   6.393   3.874 -0.0799  0.4904 -0.2774
 3633SOL    HW212341   2.067   6.337   3.963 -0.0661  0.0710 -0.5531
 3634SOL     OW12342   7.496   4.707   8.395  0.2902 -0.1068  0.2359
 3634SOL    HW112343   7.539   4.669   8.319 -1.3598  1.1143 -1.4043
 3634SOL    HW212344   7.423   4.649   8.414 -0.7436  0.8429 -0.6953
 3635SOL     OW12345   1.602   6.391   5.811  0.1976  0.6135  0.5365
 3635SOL    HW112346   1.611   6.403   5.905  2.2801  1.6119  0.2695
 3635SOL    HW212347   1.510   6.409   5.793 -0.4006 -0.2409  2.4257
 3636SOL     OW12348   6.921   6.038   9.800 -0.4223  0.0187  0.7068
 3636SOL    HW112349   6.995   5.989   9.836  1.2096  0.7376 -1.4258
 3636SOL    HW212350   6.933   6.031   9.705 -2.8024  0.6397  0.3136
 3637SOL     OW12351   7.028   4.004   7.459  0.2608 -0.5123  0.5212
 3637SOL    HW112352   7.064   4.019   7.372 -3.7953  1.2354 -1.1151
 3637SOL    HW212353   6.989   3.917   7.455  0.9418 -0.8531  1.0012
 3638SOL     OW12354   1.864   5.116   6.952 -0.0989 -0.4046 -0.8565
 3638SOL    HW112355   1.796   5.183   6.946  0.3823  0.1265 -0.5174
 3638SOL    HW212356   1.838   5.061   7.025  1.1414  1.3383  1.0013
 3639SOL     OW12357   0.923   3.281   6.417 -0.2062  0.4694  0.2192
 3639SOL    HW112358   0.973   3.226   6.477 -1.3682 -0.2767  0.5321
 3639SOL    HW212359   0.933   3.370   6.453 -2.2537 -0.1457  2.5804
 3640SOL     OW12360   0.260   2.977   4.663 -0.1537  0.0800  0.5089
 3640SOL    HW112361   0.298   3.052   4.619 -1.5995  0.3730 -0.2892
 3640SOL    HW212362   0.297   2.980   4.752  0.2332  1.4053  0.3208
 3641SOL     OW12363   0.052   3.870   7.962  0.1078 -0.1458  0.4068
 3641SOL    HW112364   0.026   3.946   7.909  1.5552  0.8626  1.0679
 3641SOL    HW212365   0.053   3.797   7.901 -1.6422  0.2848 -0.1763
 3642SOL     OW12366   0.677   3.072   8.410 -0.7288  0.4087  0.7007
 3642SOL    HW112367   0.748   3.130   8.382 -1.3919  1.2800  0.7966
 3642SOL    HW212368   0.654   3.023   8.331 -0.7304  0.8793  0.4029
 3643SOL     OW12369   0.034   3.754   5.664  0.3743  0.1799  0.4095
 3643SOL    HW112370   0.016   3.797   5.580  0.2006 -1.2161 -0.3056
 3643SOL    HW212371   0.011   3.662   5.648 -3.6231  0.4317  3.1382
 3644SOL     OW12372   0.779   4.641   6.662 -0.2190 -0.3027 -0.2774
 3644SOL    HW112373   0.781   4.737   6.664 -0.8552 -0.2421 -1.5611
 3644SOL    HW212374   0.775   4.616   6.754 -2.0434  0.9662  0.0461
 3645SOL     OW12375   1.382   4.974   5.622 -0.2158 -0.0557 -0.3501
 3645SOL    HW112376   1.395   4.951   5.530  0.3469 -2.2903  0.2220
 3645SOL    HW212377   1.367   4.890   5.666  0.2554  0.8754  1.7250
 3646SOL     OW12378   1.213   5.620   4.713  0.6868  0.2447 -0.4579
 3646SOL    HW112379   1.194   5.526   4.721  0.0451  0.2182 -1.9979
 3646SOL    HW212380   1.157   5.660   4.780 -0.2757 -0.3547 -0.8705
 3647SOL     OW12381   7.440   4.320   5.908  0.2443 -0.2587 -0.4181
 3647SOL    HW112382   7.440   4.225   5.919  0.8176 -0.4444 -1.7857
 3647SOL    HW212383   7.409   4.354   5.992 -0.4225 -1.6642 -0.0601
 3648SOL     OW12384   0.619   6.280   7.055 -0.5704 -0.1652 -0.0747
 3648SOL    HW112385   0.547   6.255   6.997 -0.7547  0.3343 -0.0675
 3648SOL    HW212386   0.650   6.364   7.020 -1.4488  0.7300  1.2339
 3649SOL     OW12387   1.195   3.961   6.010 -0.2751 -0.4772 -0.5356
 3649SOL    HW112388   1.221   3.925   6.095 -0.0107  0.3160 -0.2734
 3649SOL    HW212389   1.126   4.025   6.031  1.2875  1.3408 -0.6550
 3650SOL     OW12390   7.925   5.308   7.563  0.4437  0.4921 -0.0910
 3650SOL    HW112391   7.912   5.232   7.506  0.8146  1.1394 -1.0642
 3650SOL    HW212392   7.868   5.375   7.527  1.5742  1.2938 -0.4664
 3651SOL     OW12393   0.228   4.391   7.449  0.8493 -0.3506 -0.1725
 3651SOL    HW112394   0.162   4.327   7.423 -0.0998  0.6048 -0.2331
 3651SOL    HW212395   0.280   4.347   7.516 -0.1890 -0.9635  0.2493
 3652SOL     OW12396   1.451   3.385   7.891 -0.6309  0.2132  0.0247
 3652SOL    HW112397   1.506   3.319   7.932 -0.1440  0.9116  0.5171
 3652SOL    HW212398   1.419   3.438   7.964  0.9214  1.9943 -0.5166
 3653SOL     OW12399   0.537   4.569   6.536  0.4308 -0.3462 -0.1869
 3653SOL    HW112400   0.529   4.567   6.631 -0.7900  2.3792 -0.1568
 3653SOL    HW212401   0.610   4.629   6.519 -0.3375  0.3875 -0.9831
 3654SOL     OW12402   0.175   6.126   4.875 -0.2935  0.2807 -0.3449
 3654SOL    HW112403   0.200   6.215   4.902  0.3584  0.3752 -1.2105
 3654SOL    HW212404   0.094   6.108   4.923 -0.3751  1.3024 -0.0765
 3655SOL     OW12405   2.737   4.175   7.400  0.2032 -0.0951  0.0344
 3655SOL    HW112406   2.820   4.129   7.383 -0.2890 -0.6979 -0.8045
 3655SOL    HW212407   2.760   4.267   7.393  0.4946 -0.2655 -1.9078
 3656SOL     OW12408   2.045   5.181   6.697 -0.0343  0.4716  0.1755
 3656SOL    HW112409   1.980   5.180   6.767  0.0535 -0.8275  0.2671
 3656SOL    HW212410   2.126   5.150   6.738  0.4378  1.2810 -0.1264
 3657SOL     OW12411   1.862   4.861   4.976  0.3636  0.3958 -0.2575
 3657SOL    HW112412   1.805   4.791   5.006 -0.9378  0.8110 -1.6456
 3657SOL    HW212413   1.886   4.836   4.887  1.4566  0.7851 -0.0865
 3658SOL     OW12414   1.796   5.841   5.082 -0.0254 -0.5381  0.2675
 3658SOL    HW112415   1.833   5.916   5.129  0.6237 -1.3647  1.1013
 3658SOL    HW212416   1.754   5.880   5.005 -0.8906  0.8302  1.3683
 3659SOL     OW12417   0.328   4.432   6.758 -0.1884  0.3553  0.5279
 3659SOL    HW112418   0.263   4.392   6.701 -0.0477 -0.9473  1.2367
 3659SOL    HW212419   0.292   4.519   6.779 -0.2032  0.9002 -1.5474
 3660SOL     OW12420   1.021   5.688   4.904  0.1720 -0.8016 -0.0933
 3660SOL    HW112421   1.062   5.630   4.968  0.2216 -0.7446 -0.0737
 3660SOL    HW212422   0.931   5.699   4.936  0.5151  0.1565  0.6024
 3661SOL     OW12423   6.867   4.465   6.672 -0.7402  0.1577  0.3180
 3661SOL    HW112424   6.926   4.465   6.748 -1.0835  1.0842  0.5951
 3661SOL    HW212425   6.782   4.439   6.708 -1.2411  1.9865  0.5470
 3662SOL     OW12426   7.567   5.116   7.609 -0.4187  0.0644  0.0311
 3662SOL    HW112427   7.500   5.056   7.643  0.2093 -0.8624 -0.3592
 3662SOL    HW212428   7.529   5.152   7.529 -0.7449  0.0886  0.1960
 3663SOL     OW12429   0.270   5.641   8.439 -0.6789 -0.3294 -0.8558
 3663SOL    HW112430   0.358   5.665   8.408  0.6594 -1.1623  1.9729
 3663SOL    HW212431   0.239   5.720   8.485 -0.0628 -0.9880  0.7595
 3664SOL     OW12432   7.372   4.032   5.687  0.3112 -0.2199 -0.2774
 3664SOL    HW112433   7.442   3.984   5.730 -0.0869 -0.2538  0.3385
 3664SOL    HW212434   7.292   3.999   5.726  0.0635  1.7255  1.0217
 3665SOL     OW12435   1.197   5.420   6.951 -0.1558  0.8401  0.1557
 3665SOL    HW112436   1.155   5.367   6.883  1.3062  2.2651 -1.9760
 3665SOL    HW212437   1.194   5.365   7.029 -1.4348 -1.0989 -1.1622
 3666SOL     OW12438   1.614   6.086   5.776  0.2410  0.1353  0.2924
 3666SOL    HW112439   1.571   6.171   5.790  1.5815  1.0140 -0.7039
 3666SOL    HW212440   1.690   6.088   5.834  1.2334  0.3640 -0.9739
 3667SOL     OW12441   0.266   2.720   6.540 -0.1414  0.5338  0.3980
 3667SOL    HW112442   0.315   2.672   6.473  0.3929  1.4469  0.1198
 3667SOL    HW212443   0.175   2.710   6.515 -0.0516 -0.4042  0.3983
 3668SOL     OW12444   0.635   4.633   5.553  0.1929  0.0483 -0.2890
 3668SOL    HW112445   0.598   4.605   5.637 -0.3528 -1.7780 -1.0911
 3668SOL    HW212446   0.583   4.710   5.528 -0.2536  0.0431  0.5892
 3669SOL     OW12447   2.324   2.730   5.090  0.5309  0.1135 -0.7710
 3669SOL    HW112448   2.389   2.672   5.051  2.7581  1.7937  0.2213
 3669SOL    HW212449   2.288   2.680   5.164  0.2096 -1.0550 -1.6953
 3670SOL     OW12450   0.410   2.578   6.356 -0.3484 -0.7706  0.0022
 3670SOL    HW112451   0.412   2.530   6.273 -1.6986  0.6060 -0.8804
 3670SOL    HW212452   0.498   2.615   6.364 -0.1656 -1.0185 -0.7526
 3671SOL     OW12453   2.882   5.431   6.909 -0.2201 -0.2002  0.1029
 3671SOL    HW112454   2.972   5.433   6.878 -0.6247 -0.7198 -1.1606
 3671SOL    HW212455   2.871   5.515   6.955  1.4234 -0.8835  1.9228
 3672SOL     OW12456   7.804   4.505   6.763 -0.5552  0.0458  0.8739
 3672SOL    HW112457   7.725   4.458   6.738 -0.0227 -0.6395  0.4472
 3672SOL    HW212458   7.857   4.507   6.684  0.0301  0.1393  1.2603
 3673SOL     OW12459   0.440   5.172   6.134  0.4228 -0.2905 -0.3895
 3673SOL    HW112460   0.349   5.143   6.126  0.2279  0.0545  0.4967
 3673SOL    HW212461   0.487   5.121   6.067 -0.2348 -1.2498 -0.1439
 3674SOL     OW12462   7.168   3.898   7.217  0.3453 -0.0251  0.1396
 3674SOL    HW112463   7.182   3.870   7.127  2.2515 -1.6262  0.8737
 3674SOL    HW212464   7.105   3.834   7.252  0.2215  0.1136  0.1706
 3675SOL     OW12465   2.403   0.744   4.847  0.0257  0.4372  0.1640
 3675SOL    HW112466   2.442   0.667   4.888  1.2217  0.4251 -0.9378
 3675SOL    HW212467   2.451   0.818   4.884 -0.4558  0.5993  0.4822
 3676SOL     OW12468   0.399   4.736   4.744  0.5738  0.8319  0.0194
 3676SOL    HW112469   0.390   4.760   4.836  0.8258 -1.3221  0.6537
 3676SOL    HW212470   0.312   4.707   4.718  0.9630 -0.6056  0.2352
 3677SOL     OW12471   1.210   5.663   5.109 -0.3365  0.9654  0.2641
 3677SOL    HW112472   1.256   5.745   5.091 -1.8263  1.3930 -1.9325
 3677SOL    HW212473   1.280   5.598   5.114  0.7051  1.9717 -0.4245
 3678SOL     OW12474   0.118   3.104   7.861  0.0440  0.3426  0.1213
 3678SOL    HW112475   0.158   3.138   7.940  0.0834 -1.7402  1.0650
 3678SOL    HW212476   0.179   3.039   7.828 -0.3677  0.5631 -1.1627
 3679SOL     OW12477   1.006   3.364   8.127  0.6610 -0.3172  0.7268
 3679SOL    HW112478   1.025   3.454   8.155 -0.0739  0.6080 -1.5450
 3679SOL    HW212479   1.018   3.366   8.032  3.3832 -3.3371  0.8194
 3680SOL     OW12480   0.192   3.687   9.866  0.4464 -0.2092 -0.2464
 3680SOL    HW112481   0.254   3.749   9.904 -0.4515  0.7911 -0.3681
 3680SOL    HW212482   0.150   3.736   9.794  0.0315 -1.0977 -0.6226
 3681SOL     OW12483   0.336   4.668   8.063 -0.0735 -0.7252  0.5289
 3681SOL    HW112484   0.300   4.602   8.004 -1.0816 -0.1083  0.4347
 3681SOL    HW212485   0.430   4.653   8.060  0.0296 -0.0937 -2.0150
 3682SOL     OW12486   0.819   5.681   8.621  0.1634  0.4931 -0.1333
 3682SOL    HW112487   0.835   5.590   8.593 -1.7460 -0.7802  2.4522
 3682SOL    HW212488   0.759   5.717   8.556  1.0327 -0.0283 -1.2563
 3683SOL     OW12489   1.764   3.557   8.000  0.2702  0.2082  0.7270
 3683SOL    HW112490   1.859   3.552   8.012  0.4689  0.9965 -0.3873
 3683SOL    HW212491   1.745   3.496   7.929 -0.2254 -0.7651  1.6655
 3684SOL     OW12492   1.713   4.355   8.450  0.5133  0.0249  0.0151
 3684SOL    HW112493   1.623   4.389   8.449  0.9160  1.2019  1.1427
 3684SOL    HW212494   1.710   4.278   8.394 -1.4514 -0.5842  0.8921
 3685SOL     OW12495   1.702   6.842   8.078 -0.5155  0.0188  0.3355
 3685SOL    HW112496   1.717   6.887   7.995 -1.6998 -1.4693 -0.7506
 3685SOL    HW212497   1.765   6.881   8.139  1.0898  0.4670 -1.5065
 3686SOL     OW12498   7.490   3.401   8.338  0.0608  0.4048  0.2848
 3686SOL    HW112499   7.452   3.331   8.284  0.1225  1.5143 -1.2641
 3686SOL    HW212500   7.536   3.457   8.276  2.6724  0.1670  1.8613
 3687SOL     OW12501   1.169   5.305   9.755  0.4474 -0.4011 -0.5321
 3687SOL    HW112502   1.115   5.238   9.713 -0.0993  0.7281 -1.7201
 3687SOL    HW212503   1.257   5.290   9.722  0.2406 -0.2612 -1.1558
 3688SOL     OW12504   0.963   4.633   9.268  0.4814  0.4150 -0.1981
 3688SOL    HW112505   0.875   4.603   9.290  0.6583  0.8221  1.1620
 3688SOL    HW212506   0.961   4.728   9.282  1.0818  0.4566 -0.3510
 3689SOL     OW12507   2.898   4.957   8.765  0.3667 -0.1107 -0.0828
 3689SOL    HW112508   2.905   4.922   8.854  0.4409  0.0509 -0.0247
 3689SOL    HW212509   2.903   5.052   8.776 -0.7334 -0.0256 -0.1375
 3690SOL     OW12510   7.180   4.098   7.643  0.6939  0.2323  0.0711
 3690SOL    HW112511   7.132   4.062   7.569 -0.0714  0.0961  0.6304
 3690SOL    HW212512   7.125   4.169   7.676  0.2479 -0.7590  1.5181
 3691SOL     OW12513   0.655   4.886  10.596 -0.6155 -0.3477  0.1778
 3691SOL    HW112514   0.603   4.855  10.669  0.6370 -0.5152  1.0246
 3691SOL    HW212515   0.628   4.977  10.584 -0.1079  0.0090  1.5430
 3692SOL     OW12516   7.844   5.591   8.907 -0.4391  0.5657  0.1795
 3692SOL    HW112517   7.843   5.524   8.976  0.1940 -0.2157 -0.5360
 3692SOL    HW212518   7.881   5.668   8.949 -1.0058  0.4129  0.9777
 3693SOL     OW12519   1.139   5.144   8.237 -0.2964  0.6301 -1.0872
 3693SOL    HW112520   1.189   5.145   8.319 -3.5522  2.3256  1.1137
 3693SOL    HW212521   1.122   5.051   8.221  0.1596  0.2672  0.3514
 3694SOL     OW12522   0.321   5.919  10.139 -0.2645  0.0466  0.5244
 3694SOL    HW112523   0.262   5.949  10.208 -1.2051 -1.8118  0.5803
 3694SOL    HW212524   0.393   5.878  10.186 -1.4065 -2.1467  0.4565
 3695SOL     OW12525   0.186   4.671   6.734 -0.0779 -0.0462  0.3106
 3695SOL    HW112526   0.225   4.657   6.647 -1.3816  1.0161 -0.4702
 3695SOL    HW212527   0.118   4.736   6.720 -0.2104  0.2736  2.1824
 3696SOL     OW12528   1.366   4.214   9.236  0.2854 -0.3620 -0.1632
 3696SOL    HW112529   1.459   4.194   9.229  0.4952  0.2405  0.6908
 3696SOL    HW212530   1.354   4.296   9.188  0.2030 -0.4402 -0.2747
 3697SOL     OW12531   7.950   3.866   9.315  0.0832 -0.0083  1.1887
 3697SOL    HW112532   7.893   3.919   9.371  0.6454  0.3877  1.3937
 3697SOL    HW212533   7.958   3.917   9.234 -1.1302 -0.8080  0.5230
 3698SOL     OW12534   2.209   5.855   6.987 -0.1539 -0.1288  0.0816
 3698SOL    HW112535   2.206   5.934   7.041  1.6220 -0.5120  0.8262
 3698SOL    HW212536   2.229   5.887   6.899 -0.6968  0.3344  0.1216
 3699SOL     OW12537   6.927   6.501   8.419  0.7798 -0.1349  0.2592
 3699SOL    HW112538   7.015   6.467   8.438  0.2538 -2.0119 -0.4203
 3699SOL    HW212539   6.868   6.435   8.454 -0.4257  1.4231  1.3097
 3700SOL     OW12540   2.323   5.308   8.179 -0.4297  0.7665  0.5523
 3700SOL    HW112541   2.271   5.312   8.259 -1.2148  0.9199  0.0444
 3700SOL    HW212542   2.375   5.389   8.180  1.2062 -0.2337  1.9756
 3701SOL     OW12543   2.155   6.747   9.498 -1.1372  0.9261  0.0738
 3701SOL    HW112544   2.091   6.818   9.488 -2.1869  0.1662  1.1496
 3701SOL    HW212545   2.103   6.673   9.529  0.1426  0.0451  0.1490
 3702SOL     OW12546   0.509   4.653   7.116 -0.3080  0.0857  0.4878
 3702SOL    HW112547   0.452   4.708   7.061 -0.2332  0.0612  0.3850
 3702SOL    HW212548   0.595   4.694   7.108  0.4537 -1.7336 -2.0172
 3703SOL     OW12549   1.967   5.194   8.207  0.2140 -0.4978 -0.5190
 3703SOL    HW112550   1.947   5.203   8.300 -0.9532 -0.8881 -0.7252
 3703SOL    HW212551   2.027   5.119   8.203 -0.9617 -1.4785 -0.2277
 3704SOL     OW12552   1.283   3.515   8.509 -0.1533  0.2141  0.5279
 3704SOL    HW112553   1.377   3.514   8.523  0.2309  1.1869 -1.6556
 3704SOL    HW212554   1.269   3.466   8.428 -1.6417 -0.6595  1.2561
 3705SOL     OW12555   1.945   4.077   9.617  0.3051 -0.6151  0.3104
 3705SOL    HW112556   1.926   3.996   9.665  1.6793 -1.1254  0.0287
 3705SOL    HW212557   1.958   4.143   9.684  1.0034 -1.0477  0.6089
 3706SOL     OW12558   0.969   5.462   7.825  0.6658 -0.0882  0.4409
 3706SOL    HW112559   1.009   5.387   7.868  1.1387 -1.2652 -1.9001
 3706SOL    HW212560   0.941   5.429   7.739 -1.3000  1.8198  0.2501
 3707SOL     OW12561   0.999   4.489   8.747  0.3296  0.5795  0.1356
 3707SOL    HW112562   0.909   4.480   8.715  0.3597 -1.6684  0.5435
 3707SOL    HW212563   0.991   4.483   8.843  1.0280 -1.2811  0.1113
 3708SOL     OW12564   1.979   6.661   9.016  0.1176 -0.1974  0.1732
 3708SOL    HW112565   2.053   6.645   8.957  0.1190 -1.5381  0.5220
 3708SOL    HW212566   1.988   6.596   9.085 -0.2050  0.9960  1.3880
 3709SOL     OW12567   1.023   5.119   9.384 -0.0823  0.0212 -0.2773
 3709SOL    HW112568   1.116   5.130   9.403 -0.2181 -0.3860  0.6681
 3709SOL    HW212569   1.007   5.174   9.307  1.4176 -1.6275 -1.8468
 3710SOL     OW12570   0.805   5.404   8.553 -0.4689 -0.1812  0.3473
 3710SOL    HW112571   0.837   5.347   8.623  1.1208 -0.2227 -0.3555
 3710SOL    HW212572   0.773   5.343   8.486 -1.2908 -0.1610  0.7138
 3711SOL     OW12573   0.205   4.811   9.440 -0.0946  0.0195 -0.1974
 3711SOL    HW112574   0.283   4.862   9.460 -1.6648  1.4977  2.7129
 3711SOL    HW212575   0.196   4.751   9.513 -1.5415 -0.3010 -0.6037
 3712SOL     OW12576   2.864   3.391   8.844  0.1804 -0.0268 -0.2620
 3712SOL    HW112577   2.828   3.470   8.883  1.6192  0.7371 -0.4164
 3712SOL    HW212578   2.889   3.337   8.920 -0.2915 -0.0968 -0.1546
 3713SOL     OW12579   0.406   3.592   8.121 -0.3989 -0.0814 -0.5897
 3713SOL    HW112580   0.312   3.572   8.122 -0.4037 -0.0544  0.8658
 3713SOL    HW212581   0.412   3.679   8.158  0.3356 -0.7724  0.9797
 3714SOL     OW12582   1.978   3.568   8.296 -0.1015 -0.5848  0.1405
 3714SOL    HW112583   1.914   3.614   8.352 -1.1010 -1.2299 -0.4419
 3714SOL    HW212584   2.005   3.633   8.232  1.2588  0.2492  1.4974
 3715SOL     OW12585   0.779   3.274   8.231  0.0387  0.4892 -0.0585
 3715SOL    HW112586   0.850   3.328   8.198 -1.4564  1.2541 -2.2839
 3715SOL    HW212587   0.709   3.336   8.252  0.2411 -0.1566  2.9209
 3716SOL     OW12588   2.266   4.446  10.244  0.1862 -0.2388  0.2038
 3716SOL    HW112589   2.325   4.489  10.305  2.6309 -2.1595 -0.6059
 3716SOL    HW212590   2.198   4.407  10.300  1.6214 -0.8553  1.6063
 3717SOL     OW12591   0.800   3.598   8.084  0.2100 -0.1779  0.2825
 3717SOL    HW112592   0.735   3.560   8.143 -0.3630 -0.4317 -0.4912
 3717SOL    HW212593   0.819   3.684   8.122 -1.3568  0.3445 -0.0242
 3718SOL     OW12594   1.415   3.743   8.641 -0.3771 -0.9204  0.2861
 3718SOL    HW112595   1.403   3.803   8.715 -0.0691 -2.0660  1.3045
 3718SOL    HW212596   1.352   3.673   8.656 -0.6481 -0.9333 -0.8192
 3719SOL     OW12597   1.672   3.903   7.393  0.2418  0.0906  0.0500
 3719SOL    HW112598   1.746   3.960   7.411  1.4596 -1.0294 -1.1504
 3719SOL    HW212599   1.672   3.841   7.466 -0.9381  1.4111  1.2307
 3720SOL     OW12600   0.311   4.292   7.995  0.1219 -0.2170  0.0020
 3720SOL    HW112601   0.249   4.291   8.067  0.3142  1.5924  0.2315
 3720SOL    HW212602   0.288   4.369   7.944 -0.2090 -1.6155 -2.1040
 3721SOL     OW12603   7.932   7.278   9.443 -0.4203 -0.5090 -0.2099
 3721SOL    HW112604   7.984   7.284   9.523  0.4863 -1.1712 -0.7319
 3721SOL    HW212605   7.848   7.242   9.471  0.1877 -1.5533  0.3283
 3722SOL     OW12606   1.200   3.078   8.140 -0.2952  0.3671 -0.4015
 3722SOL    HW112607   1.234   3.161   8.173 -0.9163  0.7614 -0.7366
 3722SOL    HW212608   1.277   3.021   8.134  0.2698  1.1694 -0.9228
 3723SOL     OW12609   2.608   3.445   7.633  0.1947 -0.3555  0.3981
 3723SOL    HW112610   2.581   3.371   7.688  1.4395 -0.8888  0.3207
 3723SOL    HW212611   2.668   3.495   7.687  0.6788 -0.3524 -0.1359
 3724SOL     OW12612   1.493   3.629   7.788  0.0223 -0.2032 -0.4386
 3724SOL    HW112613   1.499   3.535   7.807  1.2093 -0.0917 -0.1661
 3724SOL    HW212614   1.411   3.656   7.828  0.5290 -0.7850  1.0695
 3725SOL     OW12615   1.309   2.495   8.158  0.6126 -0.0659 -0.5938
 3725SOL    HW112616   1.278   2.577   8.197  0.7860  0.2209 -1.0510
 3725SOL    HW212617   1.375   2.463   8.219  0.6663  0.2245 -0.4983
 3726SOL     OW12618   0.293   6.593   7.504 -0.1389  0.0445  0.8484
 3726SOL    HW112619   0.309   6.501   7.524  1.4761 -0.2161 -1.3171
 3726SOL    HW212620   0.202   6.607   7.531 -0.4549 -2.1763  1.1772
 3727SOL     OW12621   6.458   5.039   8.936  0.0790  0.1913 -0.6108
 3727SOL    HW112622   6.367   5.054   8.962  0.0431  0.2303 -0.7577
 3727SOL    HW212623   6.454   5.030   8.840  0.4428  1.7539 -0.7871
 3728SOL     OW12624   1.365   3.974  10.370 -0.0121  0.1557 -0.3445
 3728SOL    HW112625   1.421   4.007  10.300 -1.6529 -0.8665 -2.2335
 3728SOL    HW212626   1.327   3.894  10.334 -1.7619  0.1819  1.3057
 3729SOL     OW12627   1.739   5.168   8.863 -0.5609 -0.0833 -0.3686
 3729SOL    HW112628   1.830   5.197   8.867 -0.0265 -1.7519  0.5939
 3729SOL    HW212629   1.734   5.117   8.781 -1.5174  2.5758 -2.1037
 3730SOL     OW12630   7.631   3.370   8.051 -0.5455  0.4597  0.1564
 3730SOL    HW112631   7.623   3.279   8.079  1.5392  0.5246  1.1426
 3730SOL    HW212632   7.667   3.365   7.963 -0.2517  0.3246  0.2832
 3731SOL     OW12633   0.867   4.370   6.820 -0.0946 -0.0739  0.2396
 3731SOL    HW112634   0.836   4.406   6.903 -3.0298  0.6282 -1.0190
 3731SOL    HW212635   0.787   4.341   6.776  1.1477  1.0051 -2.9839
 3732SOL     OW12636   1.962   6.359   8.974 -0.0120 -0.3457 -0.0363
 3732SOL    HW112637   1.961   6.263   8.980 -1.5577 -0.2794  2.4264
 3732SOL    HW212638   1.870   6.384   8.979  0.4160  1.2914  0.4146
 3733SOL     OW12639   1.031   5.201   7.918  0.1996 -0.4321 -0.6815
 3733SOL    HW112640   0.956   5.141   7.916  0.4168 -0.8338  1.4587
 3733SOL    HW212641   1.041   5.224   8.010  2.2751  0.2096 -1.0259
 3734SOL     OW12642   0.448   2.372   8.973  0.0104  0.0102 -0.3646
 3734SOL    HW112643   0.541   2.384   8.958  0.6738 -2.3251  1.2161
 3734SOL    HW212644   0.411   2.360   8.886  1.6156 -1.2757 -0.9345
 3735SOL     OW12645   3.285   5.598   7.673 -0.3475  0.3132  0.2606
 3735SOL    HW112646   3.236   5.577   7.593  2.2179 -1.1424 -1.0567
 3735SOL    HW212647   3.327   5.682   7.653 -0.3951  0.3776  0.4322
 3736SOL     OW12648   0.521   4.588   7.461 -0.3122  0.4426 -0.2623
 3736SOL    HW112649   0.501   4.569   7.552  0.6012 -0.6690 -0.2616
 3736SOL    HW212650   0.603   4.541   7.444 -1.0144 -0.2745 -1.9409
 3737SOL     OW12651   2.041   4.717   6.239 -0.1653 -0.4344  0.0136
 3737SOL    HW112652   1.986   4.705   6.316  0.5739  0.9297  0.7987
 3737SOL    HW212653   2.025   4.808   6.213 -0.0394 -0.7323 -1.1611
 3738SOL     OW12654   6.864   4.764  10.793 -0.0526 -0.2896  0.0325
 3738SOL    HW112655   6.888   4.673  10.806 -1.6309 -0.5883  1.1700
 3738SOL    HW212656   6.927   4.813  10.845  0.8011 -0.7207 -0.5791
 3739SOL     OW12657   0.154   6.282   7.838  0.0163 -0.8760  0.3700
 3739SOL    HW112658   0.063   6.285   7.807  0.1100  0.3392  0.1611
 3739SOL    HW212659   0.206   6.282   7.758  0.2321  0.7566  0.4883
 3740SOL     OW12660   7.860   4.971   8.339  0.4070 -0.3652  0.7660
 3740SOL    HW112661   7.832   5.014   8.420  1.0597 -1.0597  1.3709
 3740SOL    HW212662   7.778   4.948   8.295  0.0335  1.7280  0.2769
 3741SOL     OW12663   1.499   4.792  11.173  0.4424 -0.6381 -0.5871
 3741SOL    HW112664   1.572   4.800  11.235  2.1410 -1.5463 -2.3435
 3741SOL    HW212665   1.469   4.701  11.184 -0.6445 -0.1819  0.3272
 3742SOL     OW12666   6.939   3.718   7.698  0.1097 -0.2598 -0.2565
 3742SOL    HW112667   6.860   3.767   7.679 -1.1370 -2.2847 -0.6226
 3742SOL    HW212668   7.007   3.761   7.646 -0.9182  0.9907 -0.6090
 3743SOL     OW12669   7.369   3.204   9.474 -0.0858  0.0737 -0.1995
 3743SOL    HW112670   7.428   3.226   9.546  1.2047  0.7306 -1.4208
 3743SOL    HW212671   7.352   3.288   9.430 -1.5156 -0.1858 -0.2126
 3744SOL     OW12672   1.580   5.064   9.356  0.2228  0.4895 -0.1490
 3744SOL    HW112673   1.590   5.093   9.265  1.4123  1.8936  0.3748
 3744SOL    HW212674   1.640   4.989   9.364  1.0591  1.1329 -0.2307
 3745SOL     OW12675   0.863   4.878   9.323 -0.2987  0.0976  0.5712
 3745SOL    HW112676   0.834   4.852   9.410 -0.3768  1.6908  1.0460
 3745SOL    HW212677   0.884   4.971   9.331 -0.2916  0.2751 -1.1076
 3746SOL     OW12678   0.758   4.482   8.603  0.0247 -0.0634 -0.2286
 3746SOL    HW112679   0.728   4.423   8.673  1.6474 -2.0537 -1.1031
 3746SOL    HW212680   0.726   4.568   8.630 -0.3932 -0.9205  2.3787
 3747SOL     OW12681   2.946   4.344   8.702 -0.3609 -0.1282 -0.2665
 3747SOL    HW112682   3.007   4.312   8.636 -1.9155 -0.5836 -1.5612
 3747SOL    HW212683   2.911   4.425   8.665 -1.0897 -0.2705  0.0920
 3748SOL     OW12684   1.224   2.499   8.828 -0.2345 -0.3725  0.0581
 3748SOL    HW112685   1.178   2.569   8.875 -0.4131 -0.2212 -0.3420
 3748SOL    HW212686   1.300   2.479   8.884 -1.4533 -1.5311  1.3997
 3749SOL     OW12687   2.070   4.170   7.754  0.4966  0.0425  0.0337
 3749SOL    HW112688   2.003   4.114   7.792  1.1471 -1.3155 -0.7257
 3749SOL    HW212689   2.035   4.196   7.669  0.7026 -0.2368 -0.1393
 3750SOL     OW12690   7.906   3.586   7.991  0.3729 -0.0429 -0.2714
 3750SOL    HW112691   7.860   3.657   8.035  1.5581  1.0766 -0.7874
 3750SOL    HW212692   7.841   3.551   7.929 -0.4488  0.1015  0.4919
 3751SOL     OW12693   1.110   4.740   9.730  0.1459  0.1395  0.1283
 3751SOL    HW112694   1.171   4.812   9.714 -0.8764  1.1088  0.4773
 3751SOL    HW212695   1.153   4.686   9.796  0.5484  0.8936  0.4890
 3752SOL     OW12696   7.899   4.265   9.425 -0.2253 -0.3333  0.1109
 3752SOL    HW112697   7.886   4.275   9.331  1.0363 -2.6657 -0.4075
 3752SOL    HW212698   7.845   4.190   9.449  0.6511 -0.7390  0.9050
 3753SOL     OW12699   7.954   6.438   9.315 -0.1273 -0.0338  0.5123
 3753SOL    HW112700   7.935   6.412   9.226  0.2957  2.3985 -0.3817
 3753SOL    HW212701   8.050   6.448   9.318 -0.3078  2.5232  0.3315
 3754SOL     OW12702   7.952   4.583   8.587 -0.6121  0.2851 -0.0381
 3754SOL    HW112703   7.948   4.658   8.646 -1.4707 -0.2346  0.5820
 3754SOL    HW212704   8.046   4.567   8.574 -0.3928  0.0956  1.6015
 3755SOL     OW12705   0.047   6.159   8.071 -0.0492 -0.3367 -0.2732
 3755SOL    HW112706  -0.031   6.119   8.034 -0.3491  1.0449 -1.2234
 3755SOL    HW212707   0.091   6.200   7.997  1.3628 -0.7211  0.3193
 3756SOL     OW12708   7.883   5.075   7.184 -0.0039  0.2588 -0.4387
 3756SOL    HW112709   7.857   5.083   7.276 -1.0938 -0.4027 -0.6680
 3756SOL    HW212710   7.925   5.159   7.164 -0.8620  0.8959  0.3203
 3757SOL     OW12711   0.794   4.108   7.624  0.2312  0.2858  0.5804
 3757SOL    HW112712   0.869   4.089   7.681  0.3789 -1.0644 -0.0209
 3757SOL    HW212713   0.718   4.093   7.680  0.3933  0.1546  0.7689
 3758SOL     OW12714   0.638   3.765   8.844  0.5352 -0.3715  0.0849
 3758SOL    HW112715   0.608   3.818   8.918  0.7939  0.4819 -0.4035
 3758SOL    HW212716   0.595   3.680   8.856 -0.7332  0.2745  0.3098
 3759SOL     OW12717   0.619   2.587   7.239  0.1038 -0.1447 -0.0026
 3759SOL    HW112718   0.705   2.624   7.219  1.4262 -2.5456  0.7203
 3759SOL    HW212719   0.588   2.637   7.314  0.9237  0.6989 -0.2113
 3760SOL     OW12720   7.139   1.862   7.631  0.0485 -0.5175 -0.7523
 3760SOL    HW112721   7.122   1.940   7.578 -1.8929 -0.9158 -0.7979
 3760SOL    HW212722   7.120   1.890   7.721  0.9870 -0.4954 -0.5542
 3761SOL     OW12723   1.729   4.465   7.972 -0.3103 -0.2682  0.4972
 3761SOL    HW112724   1.731   4.554   8.008  0.4058  0.5279 -1.3923
 3761SOL    HW212725   1.771   4.473   7.887 -1.7306 -2.1072 -0.4452
 3762SOL     OW12726   1.700   6.305   8.109 -0.5248  0.4904  0.6691
 3762SOL    HW112727   1.638   6.253   8.057  0.6765 -0.8955  0.5723
 3762SOL    HW212728   1.744   6.361   8.046  1.0247 -1.2827  0.1128
 3763SOL     OW12729   7.185   5.910   5.610 -0.5880  0.1942 -0.6940
 3763SOL    HW112730   7.104   5.873   5.646 -0.2338 -0.4285 -0.5247
 3763SOL    HW212731   7.159   5.996   5.575 -0.9628  0.7760  0.9481
 3764SOL     OW12732   1.011   6.172   7.413  0.0187 -0.3202  0.2008
 3764SOL    HW112733   1.097   6.136   7.431  1.0665  1.0184 -1.7727
 3764SOL    HW212734   0.964   6.165   7.497  1.8983 -1.3754  1.2319
 3765SOL     OW12735   0.476   6.959   9.158  0.1132 -0.7353  0.5703
 3765SOL    HW112736   0.400   7.008   9.126  0.4910 -0.5768 -0.1219
 3765SOL    HW212737   0.501   7.003   9.240 -0.3378 -0.5837  0.6246
 3766SOL     OW12738   1.574   3.428   8.302  0.8785  0.6427  0.6536
 3766SOL    HW112739   1.651   3.381   8.272  1.5071  2.6253 -1.1047
 3766SOL    HW212740   1.596   3.456   8.391  1.3072 -0.5854  0.9390
 3767SOL     OW12741   2.964   3.571  10.288  0.0818 -0.0334 -0.5134
 3767SOL    HW112742   2.915   3.644  10.251 -0.0995 -0.5679 -1.3814
 3767SOL    HW212743   3.052   3.605  10.300 -0.2918  0.6887  0.2711
 3768SOL     OW12744   3.292   3.134   8.582 -0.3487  0.1513 -0.1322
 3768SOL    HW112745   3.293   3.084   8.501  2.9891  1.9337 -1.3559
 3768SOL    HW212746   3.350   3.085   8.641  0.6359  1.0425 -0.3441
 3769SOL     OW12747   0.711   4.828   9.121 -0.2234  0.4929  0.2053
 3769SOL    HW112748   0.770   4.843   9.195 -0.2792 -1.7832  0.7955
 3769SOL    HW212749   0.744   4.748   9.080 -2.3153 -0.3219 -0.0177
 3770SOL     OW12750   0.475   4.927   8.034 -0.2500  0.7569 -0.5719
 3770SOL    HW112751   0.418   4.992   7.992 -1.3467  0.5122  0.4649
 3770SOL    HW212752   0.422   4.847   8.035 -1.0556  1.1583  2.7918
 3771SOL     OW12753   7.717   5.799   7.086  0.2248 -0.0929  0.2899
 3771SOL    HW112754   7.774   5.875   7.077 -0.2232  0.1258 -0.9409
 3771SOL    HW212755   7.750   5.753   7.162  1.7439  0.2803 -0.1130
 3772SOL     OW12756   0.778   5.037   7.974  0.2055 -0.1517 -0.0939
 3772SOL    HW112757   0.707   5.029   7.910  2.2747  0.4608 -2.6603
 3772SOL    HW212758   0.806   4.947   7.990 -0.5583 -0.3344  0.2163
 3773SOL     OW12759   1.571   3.436   8.829  0.2267 -0.4995 -0.3975
 3773SOL    HW112760   1.637   3.400   8.889  0.3130  0.1252 -0.1104
 3773SOL    HW212761   1.488   3.423   8.875  0.2848 -0.0952 -0.1666
 3774SOL     OW12762   1.837   4.559   9.571 -0.3656  0.0286  0.5972
 3774SOL    HW112763   1.844   4.535   9.664  1.5209  0.4777  0.6005
 3774SOL    HW212764   1.892   4.496   9.525 -1.5660 -0.4151 -0.2933
 3775SOL     OW12765   0.946   3.726   8.832  0.1305 -0.0834  0.7702
 3775SOL    HW112766   0.927   3.717   8.739 -2.6546 -4.9047  1.4579
 3775SOL    HW212767   0.866   3.763   8.869  0.5644  0.1912  1.4536
 3776SOL     OW12768   7.109   3.325   9.394  0.4839 -0.0720 -0.4470
 3776SOL    HW112769   7.061   3.277   9.327 -1.7614 -0.5370  1.3815
 3776SOL    HW212770   7.162   3.259   9.439 -0.7750 -0.4387  0.5279
 3777SOL     OW12771   2.413   4.388   8.169  0.9404 -0.3016  0.6325
 3777SOL    HW112772   2.327   4.429   8.182  0.9795 -0.6784  2.2297
 3777SOL    HW212773   2.425   4.389   8.074 -0.8132 -0.1968  0.3717
 3778SOL     OW12774   0.143   6.342  10.351  0.4233  0.5610 -0.3202
 3778SOL    HW112775   0.134   6.357  10.445  0.5283 -1.3279  0.0301
 3778SOL    HW212776   0.142   6.430  10.312  2.3523  1.5050  1.5842
 3779SOL     OW12777   7.994   4.319   7.847  0.2494 -0.3583  0.2388
 3779SOL    HW112778   7.933   4.374   7.797  1.1689 -0.0119 -0.5213
 3779SOL    HW212779   8.057   4.380   7.885  0.0163 -0.6975  1.1987
 3780SOL     OW12780   0.779   3.825   9.252  0.0427 -0.2797 -0.0881
 3780SOL    HW112781   0.770   3.881   9.174 -1.9344 -0.5018 -0.0689
 3780SOL    HW212782   0.735   3.743   9.228 -1.7625  0.1078  1.6400
 3781SOL     OW12783   1.094   5.989   9.582 -0.6041 -0.3942  0.1887
 3781SOL    HW112784   1.136   6.039   9.512 -0.2204 -0.0725  0.6344
 3781SOL    HW212785   1.148   5.910   9.590 -1.3670 -1.0155 -0.6946
 3782SOL     OW12786   0.666   6.115  11.298  0.4342 -0.4027  0.0183
 3782SOL    HW112787   0.646   6.057  11.225 -1.0710 -1.8927  1.5279
 3782SOL    HW212788   0.625   6.198  11.274 -0.7716 -1.1157 -0.4581
 3783SOL     OW12789   0.100   1.750   6.173 -0.1435 -0.1209  0.8226
 3783SOL    HW112790   0.121   1.775   6.083 -0.5764 -1.4690  0.3261
 3783SOL    HW212791   0.117   1.656   6.177 -0.5406 -0.1658  2.0367
 3784SOL     OW12792   7.434   4.936   8.981 -0.3960 -0.0231 -0.0979
 3784SOL    HW112793   7.435   4.898   9.069 -2.1145 -0.1312 -0.0918
 3784SOL    HW212794   7.459   5.028   8.994 -1.1319  0.0881  0.5728
 3785SOL     OW12795   7.660   5.657   9.511 -0.1593  0.3009 -0.2422
 3785SOL    HW112796   7.722   5.588   9.487 -1.0358  0.1931 -2.3682
 3785SOL    HW212797   7.692   5.734   9.464 -0.3957  0.8270  0.4413
 3786SOL     OW12798   1.359   4.415   8.999 -0.4619  0.4244 -0.1350
 3786SOL    HW112799   1.276   4.462   8.998 -0.3018  0.7191 -1.3641
 3786SOL    HW212800   1.375   4.394   8.907 -0.8092 -2.5513  0.3894
 3787SOL     OW12801   0.710   4.250  10.257  0.3698  0.0848  0.4570
 3787SOL    HW112802   0.662   4.275  10.178  0.7444  2.9897  1.0493
 3787SOL    HW212803   0.795   4.294  10.248  0.7575 -0.2718  2.0715
 3788SOL     OW12804   0.059   5.426  10.295 -0.6475 -0.4405  0.1186
 3788SOL    HW112805  -0.009   5.451  10.233 -0.2485  0.8863  0.1880
 3788SOL    HW212806   0.122   5.497  10.291  1.1432 -1.9606 -0.4915
 3789SOL     OW12807   1.779   5.162   6.024  0.5670  0.5968  0.4229
 3789SOL    HW112808   1.694   5.168   5.981 -0.0141  0.7748  1.5628
 3789SOL    HW212809   1.839   5.209   5.966 -0.3841  1.6772  0.2898
 3790SOL     OW12810   1.286   5.217   8.456 -0.1973 -0.2858 -0.2717
 3790SOL    HW112811   1.257   5.300   8.494 -0.1614 -0.6165  0.5151
 3790SOL    HW212812   1.378   5.230   8.435 -0.7001  0.5411 -2.1176
 3791SOL     OW12813   7.483   3.442   7.117  0.4305 -1.0140 -0.1835
 3791SOL    HW112814   7.554   3.482   7.168  1.5358 -2.2971 -0.6420
 3791SOL    HW212815   7.524   3.418   7.034 -0.4781 -2.0156 -0.3610
 3792SOL     OW12816   0.563   3.790   8.586  0.2149  0.4091 -0.4019
 3792SOL    HW112817   0.543   3.884   8.581  0.7927  0.6974  1.6980
 3792SOL    HW212818   0.600   3.778   8.674 -1.6812 -2.1391  0.1833
 3793SOL     OW12819   7.929   5.956   7.074  0.3078  0.2130  0.5445
 3793SOL    HW112820   8.013   6.002   7.070  1.2780 -1.4824  0.1536
 3793SOL    HW212821   7.898   5.955   6.983 -0.0745  0.7302  0.6687
 3794SOL     OW12822   1.760   4.818   9.383 -0.3787 -1.1941 -0.1570
 3794SOL    HW112823   1.787   4.756   9.451  0.1376  0.1168  0.8900
 3794SOL    HW212824   1.765   4.769   9.301  0.4664 -2.3804  0.5842
 3795SOL     OW12825   2.143   5.090  10.083 -0.0659  0.4190 -0.6033
 3795SOL    HW112826   2.090   5.012  10.100  0.0582  0.4477 -0.0802
 3795SOL    HW212827   2.230   5.067  10.116  0.2170  0.4232 -1.3343
 3796SOL     OW12828   0.785   4.546   7.410  0.3992  0.0057 -0.3505
 3796SOL    HW112829   0.742   4.473   7.365  1.0577  0.2004 -1.3313
 3796SOL    HW212830   0.872   4.513   7.432  0.7707  0.5514 -0.9752
 3797SOL     OW12831   1.635   5.352   9.517 -0.2964  0.0089  0.4660
 3797SOL    HW112832   1.599   5.358   9.429  1.8025  2.2286 -0.3370
 3797SOL    HW212833   1.725   5.322   9.505  0.0602  0.4299  1.8366
 3798SOL     OW12834   0.049   4.221   7.255 -0.3460 -0.0393 -0.1695
 3798SOL    HW112835  -0.006   4.143   7.259 -2.3771  1.2010 -1.7588
 3798SOL    HW212836  -0.012   4.294   7.262  1.3553  1.4329  0.0678
 3799SOL     OW12837   2.187   4.637   7.845  0.0774  0.8599 -0.3037
 3799SOL    HW112838   2.200   4.557   7.897 -4.0666 -1.1914 -1.9597
 3799SOL    HW212839   2.197   4.708   7.908 -1.2229 -1.3054  2.5950
 3800SOL     OW12840   0.865   5.981   9.288  0.4418 -0.1682 -0.0070
 3800SOL    HW112841   0.798   5.971   9.221  2.4668 -0.0014 -2.1530
 3800SOL    HW212842   0.903   5.893   9.297 -0.0776 -0.2932  1.2999
 3801SOL     OW12843   7.024   4.988   9.611 -0.3987  0.3139  0.3002
 3801SOL    HW112844   6.951   5.032   9.653 -0.8351  0.2837 -0.4197
 3801SOL    HW212845   7.102   5.030   9.648 -0.7151 -0.5200  2.0423
 3802SOL     OW12846   7.502   4.046   7.389  0.0060 -0.0483  0.4930
 3802SOL    HW112847   7.487   3.979   7.322  0.3765  0.0030  0.3557
 3802SOL    HW212848   7.486   4.001   7.472 -0.3394 -0.1451  0.3747
 3803SOL     OW12849   7.370   4.691   6.257  0.7080 -0.1620  0.0603
 3803SOL    HW112850   7.376   4.698   6.352 -0.0855  2.9070 -0.0187
 3803SOL    HW212851   7.398   4.601   6.238  3.2355 -0.1449  2.9367
 3804SOL     OW12852   7.526   5.819   9.216 -0.2531  0.5468  0.3242
 3804SOL    HW112853   7.493   5.908   9.229  0.6115  0.8553  0.4639
 3804SOL    HW212854   7.601   5.812   9.276  0.5147  0.1887 -0.6469
 3805SOL     OW12855   0.433   3.055   8.138  0.4980  1.1072  0.4557
 3805SOL    HW112856   0.406   2.966   8.116  1.4197  1.0766 -0.5906
 3805SOL    HW212857   0.362   3.110   8.105  0.3487  0.8301  0.3116
 3806SOL     OW12858   0.485   4.527   9.837  0.0887  0.5556  0.4016
 3806SOL    HW112859   0.448   4.443   9.863 -0.6140  0.4356 -0.8881
 3806SOL    HW212860   0.575   4.506   9.810  0.4715  0.5145  1.6671
 3807SOL     OW12861   1.362   4.863   9.596  0.2751 -0.1295  0.5406
 3807SOL    HW112862   1.369   4.948   9.552  0.8819 -0.2589  0.3790
 3807SOL    HW212863   1.367   4.799   9.525 -0.8822 -0.2930  0.5849
 3808SOL     OW12864   0.883   3.827   8.202  0.0880 -0.1169 -0.0159
 3808SOL    HW112865   0.930   3.886   8.144 -1.8768 -1.1917 -2.9198
 3808SOL    HW212866   0.816   3.883   8.243 -0.1501  0.1912 -0.7969
 3809SOL     OW12867   0.346   3.852   9.655 -0.3228  0.2969  0.9180
 3809SOL    HW112868   0.258   3.873   9.625 -0.0472 -0.6245 -0.6201
 3809SOL    HW212869   0.394   3.935   9.652 -0.5187  0.3771 -0.5101
 3810SOL     OW12870   1.919   6.202   9.802  0.6317  0.1399 -0.3327
 3810SOL    HW112871   2.002   6.232   9.838  1.2565  0.2931 -1.8436
 3810SOL    HW212872   1.861   6.278   9.811  0.5414 -0.0479  0.9539
 3811SOL     OW12873   0.879   4.933   8.589  0.0789  0.3101 -0.8191
 3811SOL    HW112874   0.906   5.019   8.557 -0.2758 -0.1837 -2.5275
 3811SOL    HW212875   0.909   4.872   8.522 -2.3006 -0.5891 -1.1909
 3812SOL     OW12876   0.411   5.919  10.797 -0.7813 -0.0530 -0.3582
 3812SOL    HW112877   0.330   5.925  10.849 -1.0497 -1.5069 -0.5709
 3812SOL    HW212878   0.384   5.877  10.716  0.2411 -0.8037 -0.3233
 3813SOL     OW12879   0.808   2.930   9.397 -0.1750  0.4512  0.0735
 3813SOL    HW112880   0.845   2.847   9.368 -0.9678  0.2999 -0.5427
 3813SOL    HW212881   0.881   2.992   9.394  0.4618 -0.2449  0.6998
 3814SOL     OW12882   1.138   4.808   8.938 -0.1361  0.2166 -1.0090
 3814SOL    HW112883   1.183   4.892   8.931 -0.1580  0.3324  0.0985
 3814SOL    HW212884   1.049   4.826   8.908 -0.3704  0.7955  0.0028
 3815SOL     OW12885   1.611   3.678   8.173  0.3265 -0.3243  0.3849
 3815SOL    HW112886   1.567   3.605   8.217  0.5902  0.0351  1.2463
 3815SOL    HW212887   1.664   3.636   8.105 -1.2238 -0.7841 -0.6002
 3816SOL     OW12888   0.412   3.987   9.257  0.3840 -0.0810  0.0676
 3816SOL    HW112889   0.414   4.044   9.334  0.4982 -0.4434  0.3354
 3816SOL    HW212890   0.351   4.030   9.197  0.7972  0.5413  0.0909
 3817SOL     OW12891   1.717   5.819   7.906  0.1439 -0.4200 -0.0316
 3817SOL    HW112892   1.704   5.874   7.828  0.2842  0.5237  0.5860
 3817SOL    HW212893   1.650   5.849   7.967  1.0191 -0.0557  0.7753
 3818SOL     OW12894   6.157   6.165  10.581 -0.2400 -0.2482  0.6817
 3818SOL    HW112895   6.239   6.187  10.626 -0.2405 -0.2892  0.7010
 3818SOL    HW212896   6.099   6.133  10.650 -0.2552 -0.2696  0.6587
 3819SOL     OW12897   0.377   4.271   7.647 -0.0229  0.1850  0.3347
 3819SOL    HW112898   0.327   4.203   7.693 -1.1950  1.3990  0.9400
 3819SOL    HW212899   0.437   4.305   7.713 -1.7445  1.9667  1.0802
 3820SOL     OW12900   1.384   6.212   9.946  0.0068  0.2292 -0.4806
 3820SOL    HW112901   1.358   6.122   9.926  0.0676  0.0923  0.0383
 3820SOL    HW212902   1.377   6.258   9.862 -0.2319 -0.2069 -0.7062
 3821SOL     OW12903   7.646   4.189   6.535  0.0998  0.2384  0.6728
 3821SOL    HW112904   7.635   4.236   6.453 -2.2092 -0.4672  0.4982
 3821SOL    HW212905   7.608   4.246   6.602  1.1127  0.4073  1.1221
 3822SOL     OW12906   0.262   5.542   9.889  0.0055 -0.2822 -0.3194
 3822SOL    HW112907   0.273   5.636   9.883  2.0880 -0.5369 -1.1507
 3822SOL    HW212908   0.179   5.524   9.844 -0.1404  1.0722 -0.6141
 3823SOL     OW12909   3.080   4.848   8.007 -0.3579 -0.0367 -0.2688
 3823SOL    HW112910   3.164   4.853   7.961  0.5690  2.1017  1.4828
 3823SOL    HW212911   3.103   4.828   8.097 -1.9321 -1.5208 -0.1430
 3824SOL     OW12912   1.423   5.352   7.338 -0.3263  0.1965  0.1257
 3824SOL    HW112913   1.487   5.422   7.328  0.0630  0.0982  1.6276
 3824SOL    HW212914   1.342   5.397   7.363 -1.1841  0.4096 -2.7049
 3825SOL     OW12915   1.453   6.188   8.033  0.5561 -0.3071 -0.2810
 3825SOL    HW112916   1.369   6.179   7.989  1.1092  0.2441 -1.4765
 3825SOL    HW212917   1.431   6.217   8.121 -0.4716  0.5266 -0.7981
 3826SOL     OW12918   7.089   5.944  10.027 -0.0829 -0.4990  0.2018
 3826SOL    HW112919   7.179   5.937   9.994 -0.0030 -0.4663  0.4099
 3826SOL    HW212920   7.099   5.955  10.122 -0.3027 -0.3564  0.2086
 3827SOL     OW12921   0.941   6.058  11.285 -0.4565  0.2216 -0.5532
 3827SOL    HW112922   0.961   6.099  11.200  0.2845  2.1174  0.4815
 3827SOL    HW212923   0.853   6.089  11.306 -0.2167  0.6341 -0.1440
 3828SOL     OW12924   1.986   4.964   6.128  0.3156 -0.3410 -0.1521
 3828SOL    HW112925   1.988   4.945   6.034  0.5334  3.2696 -1.0175
 3828SOL    HW212926   1.938   5.047   6.135  3.1606  1.2875  2.4788
 3829SOL     OW12927   2.138   5.451   8.718 -0.8428  0.2248 -0.4631
 3829SOL    HW112928   2.159   5.542   8.738 -0.2546  0.2188 -1.0252
 3829SOL    HW212929   2.213   5.420   8.667 -0.5832 -0.8610  0.5355
 3830SOL     OW12930   0.702   4.728   7.706  0.0880 -0.2583  0.0192
 3830SOL    HW112931   0.748   4.644   7.715 -1.1926 -0.7992  2.3409
 3830SOL    HW212932   0.717   4.754   7.615 -0.2677 -3.5060 -1.1180
 3831SOL     OW12933   2.721   5.055   5.790 -0.3622  0.0796  0.1759
 3831SOL    HW112934   2.810   5.089   5.780  0.0410  0.8362  4.5358
 3831SOL    HW212935   2.720   5.015   5.877 -3.7883 -1.7798 -0.5455
 3832SOL     OW12936   1.093   5.151  10.534  0.4375 -0.0478 -0.0818
 3832SOL    HW112937   1.179   5.165  10.494  1.0035 -2.1362  0.2747
 3832SOL    HW212938   1.107   5.171  10.626  0.4293  0.0700 -0.1064
 3833SOL     OW12939   2.312   5.218   7.229  0.2599  0.0699  0.2507
 3833SOL    HW112940   2.407   5.224   7.218  0.2048  1.2875  0.2785
 3833SOL    HW212941   2.301   5.193   7.321  0.5583  1.6332  0.7553
 3834SOL     OW12942   1.597   4.306   6.988 -0.2377 -0.4474  0.6078
 3834SOL    HW112943   1.583   4.269   7.076 -0.9496 -0.0337  0.6771
 3834SOL    HW212944   1.669   4.255   6.952  0.1379 -0.5542  1.4813
 3835SOL     OW12945   2.633   5.290  10.005  0.0993 -0.0065 -0.4557
 3835SOL    HW112946   2.728   5.281  10.001  0.1121 -0.7967  1.2136
 3835SOL    HW212947   2.619   5.365  10.062 -0.2934  1.6536 -2.5875
 3836SOL     OW12948   1.503   5.299   7.612 -0.1205  0.4556  0.6465
 3836SOL    HW112949   1.479   5.279   7.521  1.3261  3.0398 -0.4358
 3836SOL    HW212950   1.541   5.218   7.645 -1.3144 -0.7582 -0.7948
 3837SOL     OW12951   1.124   5.842   7.008  0.2336 -0.1024  0.1074
 3837SOL    HW112952   1.144   5.865   6.917  1.2711  1.1084  0.6122
 3837SOL    HW212953   1.039   5.798   7.003  0.3107 -0.1551 -1.4498
 3838SOL     OW12954   7.056   5.542   9.153  0.1552 -0.0788  0.4638
 3838SOL    HW112955   7.026   5.571   9.067  0.9192 -1.6859 -0.3873
 3838SOL    HW212956   7.011   5.459   9.167  0.8690 -0.3573  1.1291
 3839SOL     OW12957   7.328   4.368   8.117  0.4916 -0.0953 -0.4582
 3839SOL    HW112958   7.341   4.388   8.210  0.2182 -1.1151 -0.1971
 3839SOL    HW212959   7.332   4.454   8.074  1.8255  0.2740  0.3404
 3840SOL     OW12960   1.247   4.089   7.207  0.1822  0.0823  0.1232
 3840SOL    HW112961   1.266   4.097   7.113 -1.0948  1.9303 -0.0321
 3840SOL    HW212962   1.324   4.127   7.249  0.1685  0.5371 -0.2429
 3841SOL     OW12963   0.359   4.177  10.375  0.2352 -0.2725  0.3193
 3841SOL    HW112964   0.364   4.273  10.379  0.4869 -0.2814  0.2269
 3841SOL    HW212965   0.265   4.158  10.378  0.0872  0.0546 -1.3226
 3842SOL     OW12966   3.356   5.159   8.733  0.4061  0.6515  0.0451
 3842SOL    HW112967   3.276   5.140   8.781  0.1438  0.4170 -0.4794
 3842SOL    HW212968   3.424   5.161   8.800  0.3126 -1.2740  0.2476
 3843SOL     OW12969   7.569   5.509   9.174  0.0638  0.1785  0.5833
 3843SOL    HW112970   7.547   5.476   9.261  0.2639  1.1235  1.0094
 3843SOL    HW212971   7.546   5.602   9.177  0.2229  0.2611 -0.3234
 3844SOL     OW12972   2.194   5.065   8.228  0.0710  0.7683  0.0003
 3844SOL    HW112973   2.228   4.998   8.287 -0.9773  0.4046  0.2198
 3844SOL    HW212974   2.267   5.126   8.215  0.6870  0.1879  0.6940
 3845SOL     OW12975   7.789   3.582   7.204  0.5288 -0.2775 -0.2516
 3845SOL    HW112976   7.824   3.508   7.155 -0.0135  0.5874 -2.0102
 3845SOL    HW212977   7.866   3.638   7.221  1.0187 -1.3866  1.4677
 3846SOL     OW12978   2.191   2.275   8.610  0.4033 -0.3485  0.1381
 3846SOL    HW112979   2.139   2.307   8.683  0.3086  0.3696 -0.2257
 3846SOL    HW212980   2.268   2.333   8.608 -0.3623  0.6775 -1.2789
 3847SOL     OW12981   6.717   4.349   9.978  0.0902  0.0381  0.3983
 3847SOL    HW112982   6.693   4.348  10.071  1.3127  0.2835  0.7357
 3847SOL    HW212983   6.636   4.372   9.933  0.1698  3.3356  1.6747
 3848SOL     OW12984   0.565   6.660   9.420 -0.3324 -0.3098 -0.0838
 3848SOL    HW112985   0.487   6.712   9.397 -1.7580 -1.7641  1.2248
 3848SOL    HW212986   0.600   6.702   9.498  0.4687  0.5784 -0.8956
 3849SOL     OW12987   7.463   3.634   9.137  0.7410 -0.1261 -0.5382
 3849SOL    HW112988   7.524   3.602   9.070  1.7267  2.3479 -0.9418
 3849SOL    HW212989   7.497   3.721   9.160 -0.5686 -0.1910  1.9392
 3850SOL     OW12990   1.061   5.057   7.539  0.0959 -0.3637  0.4564
 3850SOL    HW112991   1.148   5.035   7.506 -0.9199 -1.0263 -2.0747
 3850SOL    HW212992   1.044   4.992   7.607  0.0777 -2.9198 -1.8129
 3851SOL     OW12993   0.162   4.349   8.202  0.4978  0.2671 -0.3661
 3851SOL    HW112994   0.138   4.442   8.212  0.7805  0.2925  0.1001
 3851SOL    HW212995   0.146   4.311   8.289 -2.0532 -0.7037 -1.1835
 3852SOL     OW12996   7.525   4.410   7.407  0.1507  0.6170  0.5193
 3852SOL    HW112997   7.446   4.364   7.379  0.7007  0.1934 -0.3949
 3852SOL    HW212998   7.495   4.498   7.429 -0.3716  0.9717 -1.3863
 3853SOL     OW12999   0.729   4.380   6.106 -0.4057 -0.0629 -0.5237
 3853SOL    HW113000   0.720   4.354   6.198 -0.7401 -0.3645 -0.6418
 3853SOL    HW213001   0.805   4.438   6.105 -1.3565  1.2433  0.2025
 3854SOL     OW13002   7.575   4.559  10.584  0.4894  0.0429 -0.1378
 3854SOL    HW113003   7.669   4.545  10.596  0.5594 -0.1318 -0.8536
 3854SOL    HW213004   7.533   4.490  10.634  0.7105  0.7812  1.1033
 3855SOL     OW13005   2.625   5.898   8.231  0.2037 -0.2499 -0.1349
 3855SOL    HW113006   2.708   5.865   8.265 -0.4918  1.3256  3.5506
 3855SOL    HW213007   2.628   5.992   8.248 -2.2193 -0.1196 -0.1289
 3856SOL     OW13008   1.688   4.788   8.616  0.1079  0.5418  1.0176
 3856SOL    HW113009   1.606   4.806   8.570  0.1459 -1.1330  0.2189
 3856SOL    HW213010   1.665   4.792   8.709 -0.9544 -0.1391  0.8044
 3857SOL     OW13011   6.938   6.688   9.040  0.0313 -0.2149 -0.0860
 3857SOL    HW113012   6.883   6.749   9.089 -2.4518 -0.7478 -2.0242
 3857SOL    HW213013   7.008   6.743   9.004 -0.1645  0.8254  1.0612
 3858SOL     OW13014   0.353   3.942   7.928 -0.0986 -0.0744  0.3986
 3858SOL    HW113015   0.335   4.010   7.993 -0.4494 -0.6598  0.9211
 3858SOL    HW213016   0.281   3.880   7.938  0.1046 -0.4158 -0.2219
 3859SOL     OW13017   7.815   5.074   7.440 -0.0300  0.5663  0.8929
 3859SOL    HW113018   7.836   4.990   7.481  0.4668  1.0922  1.7334
 3859SOL    HW213019   7.744   5.110   7.493 -0.8512  0.2947  0.0114
 3860SOL     OW13020   1.887   5.170   7.299  0.1308  0.6094  0.6568
 3860SOL    HW113021   1.792   5.172   7.288  0.2245  0.0327 -0.3905
 3860SOL    HW213022   1.903   5.103   7.365 -0.0945 -0.7353 -0.6081
 3861SOL     OW13023   1.019   3.546   9.012  0.2379 -0.5844  0.4132
 3861SOL    HW113024   0.981   3.572   9.096  0.2114  0.9687 -0.0403
 3861SOL    HW213025   1.002   3.621   8.954 -1.7313 -2.4590 -1.6324
 3862SOL     OW13026   2.587   1.897   8.583  0.1217  0.0869  0.1818
 3862SOL    HW113027   2.560   1.923   8.494  1.2687  1.4205  0.1763
 3862SOL    HW213028   2.563   1.972   8.638 -1.6325 -1.1939  1.2488
 3863SOL     OW13029   0.507   4.877   5.435  0.4846  0.0510 -0.4579
 3863SOL    HW113030   0.558   4.870   5.354  0.8355 -0.5911 -0.1879
 3863SOL    HW213031   0.431   4.931   5.411  0.1180 -0.8740 -1.4501
 3864SOL     OW13032   7.447   5.496   9.434  0.3521  0.0521  0.3870
 3864SOL    HW113033   7.376   5.502   9.498  0.4326  0.3054  0.4507
 3864SOL    HW213034   7.500   5.574   9.449  0.6840 -0.1747  0.3868
 3865SOL     OW13035   1.190   3.861   9.076  0.2956  0.0185 -0.2253
 3865SOL    HW113036   1.186   3.952   9.106 -0.1214  0.1228 -0.5919
 3865SOL    HW213037   1.216   3.867   8.984  0.5017 -0.2456 -0.1862
 3866SOL     OW13038   2.624   2.211   8.802 -0.3644  0.0311 -0.2179
 3866SOL    HW113039   2.696   2.153   8.779  0.7769  1.1270  0.4715
 3866SOL    HW213040   2.581   2.231   8.719  0.7475  0.1595 -0.7768
 3867SOL     OW13041   1.990   6.670   7.834 -0.3226 -0.0587  0.0800
 3867SOL    HW113042   1.953   6.601   7.888  1.9646 -1.5898 -0.2170
 3867SOL    HW213043   2.027   6.625   7.758  2.1856  1.3088  0.3887
 3868SOL     OW13044   7.425   5.278   9.275 -0.2796  0.1748 -0.0011
 3868SOL    HW113045   7.340   5.235   9.290  0.1044 -0.1984  1.1685
 3868SOL    HW213046   7.425   5.353   9.334  0.7455 -0.6026  1.0293
 3869SOL     OW13047   0.091   6.273   8.448 -0.1557  0.4999  0.3607
 3869SOL    HW113048   0.037   6.213   8.499 -1.3650 -0.1764 -1.6291
 3869SOL    HW213049   0.136   6.217   8.385  3.5656  0.9126  2.3426
 3870SOL     OW13050   5.863   4.771  11.168 -0.2837  0.6185  0.0596
 3870SOL    HW113051   5.945   4.726  11.189 -1.3179 -1.2528  0.2868
 3870SOL    HW213052   5.818   4.780  11.252 -1.2983 -0.4760 -0.3354
 3871SOL     OW13053   2.227   3.282  10.176 -0.0744 -0.2464 -0.3157
 3871SOL    HW113054   2.258   3.372  10.191 -1.4374  0.2463 -0.3494
 3871SOL    HW213055   2.198   3.253  10.262 -0.6055 -0.2688 -0.4995
 3872SOL     OW13056   0.774   2.913   6.506  0.0785  0.2382  0.1258
 3872SOL    HW113057   0.862   2.923   6.469  0.8375 -2.3875  1.0081
 3872SOL    HW213058   0.756   2.996   6.549  1.5452  1.3076 -1.2059
 3873SOL     OW13059   0.572   5.661   8.440  0.1851  0.5782 -0.0011
 3873SOL    HW113060   0.570   5.733   8.377 -2.8347 -0.4816 -1.2726
 3873SOL    HW213061   0.635   5.599   8.403 -0.3126  0.7151 -1.1165
 3874SOL     OW13062   6.406   4.636   8.831  0.0401  0.1018  0.0154
 3874SOL    HW113063   6.360   4.663   8.910 -1.1420 -1.5685 -0.0342
 3874SOL    HW213064   6.486   4.688   8.830 -1.2887  2.2657  0.7412
 3875SOL     OW13065   0.909   4.542   7.685 -0.5685  0.1613 -0.3043
 3875SOL    HW113066   0.914   4.489   7.764 -0.4414  0.9110  0.2009
 3875SOL    HW213067   0.933   4.482   7.614 -3.9411 -1.4820 -0.2616
 3876SOL     OW13068   2.908   4.831   9.000  0.2909  0.6505  0.2541
 3876SOL    HW113069   2.831   4.837   9.057  0.8053 -2.4289  1.5064
 3876SOL    HW213070   2.975   4.789   9.055  3.1836  3.7703 -0.5658
 3877SOL     OW13071   2.972   2.784   7.859 -0.1226  0.0412 -0.2151
 3877SOL    HW113072   3.048   2.735   7.890 -1.3211 -1.4919  0.3944
 3877SOL    HW213073   2.998   2.816   7.772  2.5878  2.8111  1.4158
 3878SOL     OW13074   6.549   4.384   7.052 -0.0038  0.5789 -0.3753
 3878SOL    HW113075   6.586   4.416   6.970 -0.5443  2.3333  0.0100
 3878SOL    HW213076   6.502   4.459   7.088 -0.5820 -0.4253  1.0814
 3879SOL     OW13077   0.442   7.080   9.948  0.1551  0.6079  0.3239
 3879SOL    HW113078   0.399   7.006   9.992 -0.2023  1.0002  0.6501
 3879SOL    HW213079   0.386   7.155   9.968  1.9003  1.4875  2.2316
 3880SOL     OW13080   0.963   4.322   7.532 -0.2820 -0.3413 -0.8992
 3880SOL    HW113081   0.888   4.263   7.535 -1.3429  0.9541 -1.0178
 3880SOL    HW213082   1.034   4.272   7.572 -0.6768 -2.3029 -2.4956
 3881SOL     OW13083   1.131   3.948   7.497  0.1727 -0.3681 -0.2932
 3881SOL    HW113084   1.188   3.874   7.520 -0.3365 -0.4381  0.8097
 3881SOL    HW213085   1.151   4.015   7.563 -0.8441 -0.3122 -0.0215
 3882SOL     OW13086   3.256   3.112  10.335  0.2298 -0.1228 -0.0693
 3882SOL    HW113087   3.173   3.074  10.307 -1.1936  3.8880 -2.0629
 3882SOL    HW213088   3.232   3.173  10.405  1.6280  0.3978 -0.0142
 3883SOL     OW13089   0.138   4.630   7.631 -0.0792 -0.1868  0.1138
 3883SOL    HW113090   0.164   4.722   7.630  0.2939 -0.2387  2.0335
 3883SOL    HW213091   0.156   4.599   7.542  1.8811  1.0236  0.0401
 3884SOL     OW13092   0.568   5.907   9.246 -0.7645 -0.1409  0.4532
 3884SOL    HW113093   0.503   5.922   9.177  0.5358  4.9095 -0.0936
 3884SOL    HW213094   0.523   5.932   9.327  0.1414  3.1534  0.0984
 3885SOL     OW13095   1.086   6.058  10.194 -0.7130 -0.6489 -0.2006
 3885SOL    HW113096   1.104   6.100  10.109 -0.3799 -1.5677 -0.5884
 3885SOL    HW213097   1.005   6.010  10.180 -2.6319  1.9820  1.0151
 3886SOL     OW13098   7.575   5.216   9.991 -0.0865  0.1174  0.1917
 3886SOL    HW113099   7.529   5.197   9.909  1.9220 -1.3827 -0.6516
 3886SOL    HW213100   7.591   5.311   9.988 -0.7658  0.2200 -0.7246
 3887SOL     OW13101   7.636   4.856   9.268 -0.0746 -0.7186 -0.2176
 3887SOL    HW113102   7.692   4.782   9.244 -0.1087 -0.8804  0.1906
 3887SOL    HW213103   7.547   4.823   9.257 -0.1027 -0.2784 -1.4281
 3888SOL     OW13104   6.654   5.865  11.229  0.1580 -0.1775 -0.0841
 3888SOL    HW113105   6.733   5.887  11.279 -0.3435 -1.8013  1.5252
 3888SOL    HW213106   6.644   5.937  11.167  0.5457  2.2405  2.4599
 3889SOL     OW13107   0.303   5.514  11.406 -0.1025 -0.4213  0.3173
 3889SOL    HW113108   0.369   5.523  11.338 -0.0941 -1.3113  0.1864
 3889SOL    HW213109   0.228   5.474  11.361  0.2153 -1.8306  0.9820
 3890SOL     OW13110   1.218   5.416   9.486 -0.1642  0.0685  0.0108
 3890SOL    HW113111   1.129   5.398   9.456  0.7800 -4.2396 -0.8703
 3890SOL    HW213112   1.213   5.406   9.582 -0.4221 -1.6831 -0.1573
 3891SOL     OW13113   0.178   3.878  11.597  0.0081 -0.5083 -0.3195
 3891SOL    HW113114   0.239   3.843  11.531 -1.1817 -0.0306 -1.7215
 3891SOL    HW213115   0.091   3.859  11.562 -0.7879 -2.7800  2.4634
 3892SOL     OW13116   0.606   4.903   9.866  1.0054  0.2020 -0.2051
 3892SOL    HW113117   0.560   4.987   9.864 -1.2938 -0.9541  0.6461
 3892SOL    HW213118   0.670   4.912   9.937  0.4231  1.0754  0.2259
 3893SOL     OW13119   0.278   5.019  10.049 -0.0893  0.2301 -0.6841
 3893SOL    HW113120   0.229   5.101  10.050  0.3412  0.4822 -0.1166
 3893SOL    HW213121   0.270   4.988   9.959 -0.0703  1.0084 -0.9607
 3894SOL     OW13122   7.963   4.808  10.041  0.0103  0.4812 -0.4275
 3894SOL    HW113123   7.946   4.858   9.961 -0.3007 -1.7836 -1.8412
 3894SOL    HW213124   8.055   4.786  10.036  0.3672  1.6224  0.6554
 3895SOL     OW13125   7.147   4.607  11.748 -0.6164 -0.2301  0.3601
 3895SOL    HW113126   7.203   4.641  11.818 -0.6539 -0.1947  0.3725
 3895SOL    HW213127   7.079   4.673  11.738 -0.1332  0.1782 -0.2915
 3896SOL     OW13128   0.512   5.948  11.439 -0.3783 -0.9089  0.0511
 3896SOL    HW113129   0.570   6.011  11.395  0.4231 -0.0877  2.1628
 3896SOL    HW213130   0.564   5.868  11.446  1.2573  0.2946  3.3598
 3897SOL     OW13131   1.507   6.343  11.076  0.5359 -0.7108 -0.2832
 3897SOL    HW113132   1.514   6.275  11.142 -0.7211 -0.5377  0.0348
 3897SOL    HW213133   1.417   6.374  11.081  0.2231 -1.0862 -2.4670
 3898SOL     OW13134   0.745   2.887  10.373  0.0440 -0.0589 -0.4442
 3898SOL    HW113135   0.786   2.874  10.288  2.0731  0.1651  0.4390
 3898SOL    HW213136   0.667   2.940  10.354  0.5865  0.2094 -2.1281
 3899SOL     OW13137   1.822   3.918   8.684 -0.3786 -0.1919 -0.3148
 3899SOL    HW113138   1.897   3.899   8.741 -0.9306  1.4278  1.0523
 3899SOL    HW213139   1.861   3.952   8.604  0.3701 -0.1764  0.0402
 3900SOL     OW13140   7.715   5.624  10.223 -0.3330  0.3634  0.0621
 3900SOL    HW113141   7.719   5.574  10.305  0.2522 -0.3155 -0.3668
 3900SOL    HW213142   7.789   5.685  10.229 -0.6311  0.7090  0.2806
 3901SOL     OW13143   1.044   6.394  10.384 -0.0762 -0.3845  0.0623
 3901SOL    HW113144   1.121   6.451  10.393 -0.2180 -0.0571 -0.6959
 3901SOL    HW213145   0.974   6.443  10.426 -0.1709 -0.0501 -0.4800
 3902SOL     OW13146   6.631   7.203   8.234  0.0563 -0.5130  0.1844
 3902SOL    HW113147   6.561   7.145   8.204 -0.8010  0.2457  0.6651
 3902SOL    HW213148   6.672   7.235   8.154  1.3096 -2.6487 -0.0889
 3903SOL     OW13149   1.060   3.684   9.256 -0.2705 -0.1059 -0.1592
 3903SOL    HW113150   1.120   3.739   9.206  0.8235  0.0507  1.2505
 3903SOL    HW213151   0.981   3.737   9.265 -0.0972  0.2787 -0.8020
 3904SOL     OW13152   6.864   5.308  10.872  0.1020 -0.0106  0.2109
 3904SOL    HW113153   6.858   5.307  10.967  0.4584 -1.9731  0.2670
 3904SOL    HW213154   6.773   5.299  10.842  0.0094  0.3979  0.3770
 3905SOL     OW13155   0.574   5.254  11.324 -0.4285 -0.3785  0.0512
 3905SOL    HW113156   0.545   5.328  11.270  1.2610  2.0352  2.2137
 3905SOL    HW213157   0.667   5.247  11.306 -0.9551 -3.9036 -2.1212
 3906SOL     OW13158   1.518   3.155   8.000 -0.1413 -0.1092  0.0001
 3906SOL    HW113159   1.604   3.132   7.965  0.2714 -1.6313  1.8262
 3906SOL    HW213160   1.496   3.083   8.059 -3.4619 -0.6069 -1.6148
 3907SOL     OW13161   7.844   5.183  10.011 -0.1626 -0.0742 -0.3897
 3907SOL    HW113162   7.749   5.184   9.999 -0.1930  0.9378 -0.1625
 3907SOL    HW213163   7.869   5.275  10.004  0.6074 -0.1593  1.0449
 3908SOL     OW13164   1.571   7.243   9.874 -0.5678  0.5155  0.0921
 3908SOL    HW113165   1.622   7.162   9.871 -2.4299 -0.7327  0.2952
 3908SOL    HW213166   1.629   7.306   9.915  0.7266 -0.8938  0.5359
 3909SOL     OW13167   7.408   6.132   9.166  0.3958 -0.4413 -0.1457
 3909SOL    HW113168   7.491   6.174   9.145  0.4224 -1.3409 -2.0658
 3909SOL    HW213169   7.392   6.154   9.258  1.4991  1.8306 -0.4384
 3910SOL     OW13170   1.727   3.890   9.387  0.0675 -0.1735  0.3950
 3910SOL    HW113171   1.633   3.875   9.398  0.1775 -0.4695  0.9531
 3910SOL    HW213172   1.735   3.986   9.385 -0.2433 -0.1452  0.3883
 3911SOL     OW13173   2.771   5.105   9.802 -0.0623 -0.5316 -0.1013
 3911SOL    HW113174   2.862   5.106   9.835  0.1367  0.5222 -0.6478
 3911SOL    HW213175   2.726   5.045   9.861  0.6524  0.0797  1.1297
 3912SOL     OW13176   7.414   7.228   9.756 -0.2437  0.7325 -0.2199
 3912SOL    HW113177   7.406   7.271   9.671  1.5522 -1.7269 -1.7857
 3912SOL    HW213178   7.492   7.266   9.795  0.7578 -0.3091 -1.1432
 3913SOL     OW13179   1.038   5.040   9.901  0.2533 -0.1233 -0.0493
 3913SOL    HW113180   1.024   5.059   9.808 -0.2557 -1.3551 -0.2433
 3913SOL    HW213181   1.004   4.951   9.913 -1.3141  0.6659  1.7114
 3914SOL     OW13182   0.907   5.790  11.664  0.6548  0.0615 -0.1530
 3914SOL    HW113183   0.939   5.860  11.607 -1.7506  0.3716 -1.2415
 3914SOL    HW213184   0.890   5.717  11.604 -0.0075 -0.3013  0.4757
 3915SOL     OW13185   1.649   4.502   8.749  0.1236  0.0638 -0.6189
 3915SOL    HW113186   1.619   4.495   8.658 -1.8082  0.0119 -0.0300
 3915SOL    HW213187   1.630   4.592   8.774  0.7629  0.1129 -0.2885
 3916SOL     OW13188   0.256   4.162   0.400  0.2323 -0.1073  0.1657
 3916SOL    HW113189   0.165   4.181   0.423  0.5435 -1.0283  2.3164
 3916SOL    HW213190   0.255   4.069   0.375  0.6478 -0.2422  0.6397
 3917SOL     OW13191   1.549   4.639   9.686  0.0844 -0.1382 -0.0014
 3917SOL    HW113192   1.480   4.705   9.679  0.7726  0.5326 -0.7625
 3917SOL    HW213193   1.623   4.685   9.725  0.1974 -0.7710  0.5375
 3918SOL     OW13194   7.320   4.490  10.949 -0.1229 -0.1321  0.3999
 3918SOL    HW113195   7.279   4.523  11.028  0.6473 -0.3841  0.9139
 3918SOL    HW213196   7.346   4.568  10.900  0.5859  0.0237  1.0230
 3919SOL     OW13197   0.508   3.986  11.342  0.4409  0.2820  0.3274
 3919SOL    HW113198   0.579   4.049  11.338  0.7860  0.0032  1.5109
 3919SOL    HW213199   0.431   4.034  11.311  1.0092  0.7852 -0.3227
 3920SOL     OW13200   1.513   3.673  10.542 -0.0874 -0.7078  0.6139
 3920SOL    HW113201   1.557   3.747  10.501  0.5752 -0.4232  1.7627
 3920SOL    HW213202   1.581   3.635  10.599 -0.8273 -1.3494  1.0809
 3921SOL     OW13203   1.296   7.004   9.848  0.5941 -0.3179 -0.3345
 3921SOL    HW113204   1.314   7.088   9.804 -3.1249  1.4016  0.9840
 3921SOL    HW213205   1.277   6.943   9.776  4.8096 -0.6553 -1.4070
 3922SOL     OW13206   0.348   4.454   9.361  0.3312  0.2806 -0.6527
 3922SOL    HW113207   0.297   4.519   9.409  1.8500  0.2001  1.2421
 3922SOL    HW213208   0.340   4.374   9.413  1.8732  0.1272 -0.5915
 3923SOL     OW13209   0.655   5.646   9.390 -0.0273  0.3134  0.4935
 3923SOL    HW113210   0.668   5.726   9.341  0.7708  0.1805  0.4829
 3923SOL    HW213211   0.664   5.576   9.326  0.1313  0.1801  0.6589
 3924SOL     OW13212   2.603   6.265   9.095 -0.4261 -0.1895  0.1324
 3924SOL    HW113213   2.563   6.316   9.024  0.7735  0.3600 -0.1690
 3924SOL    HW213214   2.530   6.247   9.155 -1.3856 -0.3341 -1.0405
 3925SOL     OW13215   0.784   4.589   9.783  0.2362  0.2674 -0.0057
 3925SOL    HW113216   0.778   4.578   9.878 -0.1786 -0.6644 -0.1187
 3925SOL    HW213217   0.865   4.545   9.759 -0.6270 -1.2603 -0.2836
 3926SOL     OW13218   1.487   3.320  11.092  0.2047 -0.4678  0.5013
 3926SOL    HW113219   1.472   3.283  11.005  1.0419  0.6122 -0.1308
 3926SOL    HW213220   1.573   3.285  11.118  1.2679  1.3657 -0.3402
 3927SOL     OW13221   0.176   5.850  11.462 -0.4216  0.8066  0.3674
 3927SOL    HW113222   0.224   5.860  11.380 -2.5514 -0.0574 -1.0619
 3927SOL    HW213223   0.197   5.762  11.492 -0.3011  0.8171  0.3147
 3928SOL     OW13224   1.060   6.464  10.095  0.0882  0.2513 -0.3798
 3928SOL    HW113225   1.051   6.453  10.189 -0.8927  1.0321 -0.3661
 3928SOL    HW213226   1.083   6.377  10.062 -0.0730 -0.1370  0.5198
 3929SOL     OW13227   0.288   5.071   9.069  0.3031  0.1478  0.3468
 3929SOL    HW113228   0.209   5.100   9.115  0.8278  1.7324  0.3011
 3929SOL    HW213229   0.275   5.101   8.979  1.1290  0.7926  0.4331
 3930SOL     OW13230   1.668   4.105   8.346 -0.4459  0.1754 -0.2448
 3930SOL    HW113231   1.619   4.043   8.400 -0.2640  0.5475  0.3546
 3930SOL    HW213232   1.650   4.078   8.256  0.9934 -1.8322  0.0130
 3931SOL     OW13233   0.163   5.880   0.175  0.4254 -0.5852  0.1634
 3931SOL    HW113234   0.093   5.850   0.233  0.9540  0.4649  1.4103
 3931SOL    HW213235   0.130   5.962   0.138  0.3130 -0.9729 -0.6157
 3932SOL     OW13236   7.809   5.393   9.097  0.6213  0.2879 -0.3797
 3932SOL    HW113237   7.813   5.302   9.125  0.9511  0.1689 -0.8092
 3932SOL    HW213238   7.743   5.433   9.154 -0.0271 -0.3826 -0.6412
 3933SOL     OW13239   0.497   4.767  11.293 -0.4086 -0.4255 -0.5157
 3933SOL    HW113240   0.484   4.673  11.278 -0.3845 -0.6159  0.6016
 3933SOL    HW213241   0.535   4.773  11.381  2.4464  0.4413 -1.6815
 3934SOL     OW13242   2.398   5.104   7.938 -0.1145  0.1738 -0.5577
 3934SOL    HW113243   2.419   5.117   8.031  0.1821 -0.4465 -0.5273
 3934SOL    HW213244   2.308   5.135   7.929 -0.2008  0.0969 -0.0270
 3935SOL     OW13245   0.667   5.239   9.983  0.4938  0.0821 -0.3147
 3935SOL    HW113246   0.717   5.230   9.902 -0.0797 -3.0497 -0.4434
 3935SOL    HW213247   0.576   5.244   9.955  0.3841  0.6101  0.1102
 3936SOL     OW13248   7.907   6.894  11.192 -0.2123  0.2104 -0.4390
 3936SOL    HW113249   7.861   6.811  11.183  0.2785 -0.0635 -0.5055
 3936SOL    HW213250   7.907   6.911  11.286  1.8242 -1.1488 -0.1124
 3937SOL     OW13251   1.234   6.251  10.610  0.0310  0.1025  0.1803
 3937SOL    HW113252   1.179   6.259  10.687 -1.3489  0.4275 -0.7988
 3937SOL    HW213253   1.322   6.274  10.640 -0.0585 -1.7569  2.1030
 3938SOL     OW13254   1.648   5.134  10.715  0.2294  0.1825 -0.0429
 3938SOL    HW113255   1.660   5.115  10.622  0.1628  0.1219 -0.0394
 3938SOL    HW213256   1.718   5.195  10.737 -0.6644  1.4113 -0.5041
 3939SOL     OW13257   0.033   5.134  11.193  0.0807  0.0936 -0.2909
 3939SOL    HW113258   0.035   5.044  11.225  0.2262  0.6076  1.2129
 3939SOL    HW213259   0.056   5.188  11.269  0.6003  1.3700 -1.2998
 3940SOL     OW13260   0.925   6.865  10.389  0.2457  0.2712  1.2565
 3940SOL    HW113261   0.934   6.959  10.405 -1.2001  0.9743 -1.4260
 3940SOL    HW213262   0.971   6.851  10.306 -0.0919 -1.2745  1.2998
 3941SOL     OW13263   0.285   4.790   9.026  0.7694  0.1514 -0.0376
 3941SOL    HW113264   0.222   4.777   9.096 -0.3028 -0.8381 -1.1262
 3941SOL    HW213265   0.280   4.883   9.006 -1.3022 -0.0840 -0.9047
 3942SOL     OW13266   7.422   3.791   9.888 -0.0525 -0.4985  0.4355
 3942SOL    HW113267   7.367   3.867   9.906 -0.8230 -1.1873  1.0477
 3942SOL    HW213268   7.499   3.803   9.944 -0.6038 -0.6218  1.2428
 3943SOL     OW13269   2.057   4.969   9.145  0.3737  0.6058 -0.3633
 3943SOL    HW113270   2.067   4.979   9.051  0.5489 -0.0146 -0.4113
 3943SOL    HW213271   1.975   4.921   9.156  0.8453 -0.1914 -0.2466
 3944SOL     OW13272   0.211   6.115   9.724  0.2181  0.2548  0.0780
 3944SOL    HW113273   0.216   6.025   9.693  3.3803  0.8709 -1.5972
 3944SOL    HW213274   0.237   6.110   9.816 -1.0562 -0.6482  0.4199
 3945SOL     OW13275   1.620   5.491   9.073  0.2081 -0.3140 -0.4063
 3945SOL    HW113276   1.620   5.547   9.151 -1.0580  0.1273 -0.6914
 3945SOL    HW213277   1.570   5.541   9.008 -1.4482 -1.9722 -0.5075
 3946SOL     OW13278   1.271   5.983   8.991  0.1249  0.1738 -0.6713
 3946SOL    HW113279   1.325   5.905   9.004 -1.0638 -0.5392  0.2153
 3946SOL    HW213280   1.334   6.053   8.973  1.5727 -0.1916  2.2716
 3947SOL     OW13281   7.305   4.189  10.312 -0.7897  0.0910 -0.2837
 3947SOL    HW113282   7.371   4.122  10.294 -0.4602 -0.3198  2.1880
 3947SOL    HW213283   7.238   4.145  10.364 -0.6432  1.6095  1.2712
 3948SOL     OW13284   7.777   4.804  10.547  0.1037 -0.2266  0.5950
 3948SOL    HW113285   7.839   4.847  10.607  0.1818 -0.8293  0.9453
 3948SOL    HW213286   7.830   4.786  10.469  0.0163  0.5033  0.3546
 3949SOL     OW13287   2.167   5.885  10.202 -0.3742  0.3216 -0.4513
 3949SOL    HW113288   2.219   5.852  10.128 -2.2757 -0.1502 -1.6325
 3949SOL    HW213289   2.101   5.817  10.217 -1.8744  1.7621 -0.2741
 3950SOL     OW13290   0.832   3.770  11.124 -0.1594 -0.7625  0.3651
 3950SOL    HW113291   0.800   3.699  11.069 -0.8614 -1.6881  1.9081
 3950SOL    HW213292   0.766   3.839  11.116  0.0343 -0.6503 -0.3702
 3951SOL     OW13293   0.568   2.523   8.443  0.2605 -0.3854  0.2136
 3951SOL    HW113294   0.488   2.490   8.403 -0.1460  0.6996  0.1114
 3951SOL    HW213295   0.605   2.583   8.378  0.7778 -0.3241  0.5515
 3952SOL     OW13296   0.106   6.049  12.082 -0.3390 -0.5369 -0.6458
 3952SOL    HW113297   0.096   5.966  12.036 -0.6804 -1.7159  1.3998
 3952SOL    HW213298   0.019   6.089  12.077 -0.5158 -0.9054 -0.5847
 3953SOL     OW13299   7.561   5.906  10.522  0.3102  0.2220 -0.0913
 3953SOL    HW113300   7.567   5.945  10.610 -2.5181 -1.0412  0.7601
 3953SOL    HW213301   7.593   5.817  10.532  2.5950  0.8659 -1.0486
 3954SOL     OW13302   0.601   7.099  10.763  0.3180 -0.0156 -0.4648
 3954SOL    HW113303   0.573   7.119  10.853  1.7574  2.4980 -0.4756
 3954SOL    HW213304   0.686   7.056  10.774  1.3153  1.8307 -0.5871
 3955SOL     OW13305   6.309   5.724   9.204 -0.4751 -0.3338 -0.3578
 3955SOL    HW113306   6.336   5.732   9.296 -0.8236 -0.2751 -0.2546
 3955SOL    HW213307   6.273   5.810   9.183  0.4879 -0.0426 -0.8552
 3956SOL     OW13308   0.129   5.054   9.774  0.5199 -0.1298 -0.3777
 3956SOL    HW113309   0.086   5.008   9.702  0.7667 -3.6563  1.5405
 3956SOL    HW213310   0.060   5.067   9.839  0.7110  1.3938 -0.4259
 3957SOL     OW13311   1.110   3.528   9.486  0.5910  0.4420  0.4489
 3957SOL    HW113312   1.087   3.591   9.417 -0.2381 -0.1013  0.2140
 3957SOL    HW213313   1.184   3.568   9.531 -0.8854  2.3782  1.3278
 3958SOL     OW13314   1.766   4.687   8.130 -1.0948 -0.3941 -0.8378
 3958SOL    HW113315   1.776   4.782   8.129 -0.8347 -0.4123 -0.3237
 3958SOL    HW213316   1.790   4.661   8.219  0.4627 -1.1171 -1.4349
 3959SOL     OW13317   0.276   1.457  10.189 -0.2645  0.2843 -0.4204
 3959SOL    HW113318   0.233   1.520  10.131  0.6484  1.6570  0.3257
 3959SOL    HW213319   0.311   1.510  10.261  0.5490 -1.0795  0.2447
 3960SOL     OW13320   0.900   3.538  10.656 -0.2473  0.1720 -0.4832
 3960SOL    HW113321   0.839   3.610  10.643 -1.1448 -0.7357 -1.4917
 3960SOL    HW213322   0.966   3.551  10.588 -0.5610 -0.1113 -0.8423
 3961SOL     OW13323   0.069   5.609  11.614 -0.4272 -0.3985 -0.0183
 3961SOL    HW113324   0.030   5.530  11.651  0.0847  0.0927  1.6478
 3961SOL    HW213325   0.017   5.627  11.535 -0.4677 -2.4421 -0.5088
 3962SOL     OW13326   0.249   4.548   8.894 -0.7542 -0.3317  0.8177
 3962SOL    HW113327   0.272   4.614   8.959 -0.6560  0.2234  0.2287
 3962SOL    HW213328   0.320   4.484   8.898 -0.2626  0.1990  0.5832
 3963SOL     OW13329   6.680   4.764   9.984 -0.1127 -0.3958 -0.1410
 3963SOL    HW113330   6.736   4.687   9.974 -2.4462 -2.1824 -0.3261
 3963SOL    HW213331   6.615   4.738  10.049 -2.4042  0.4934 -1.9493
 3964SOL     OW13332   2.092   5.568  10.685 -0.0577 -0.2948 -0.6381
 3964SOL    HW113333   2.010   5.603  10.650 -1.2489 -1.7330  0.5849
 3964SOL    HW213334   2.126   5.512  10.615 -0.0567  0.3507 -1.1702
 3965SOL     OW13335   2.673   4.010   9.263 -0.1468  0.0770  0.0387
 3965SOL    HW113336   2.618   3.941   9.299 -0.0153 -0.2170 -0.3158
 3965SOL    HW213337   2.758   3.998   9.305  0.1824 -0.6461 -0.8062
 3966SOL     OW13338   6.423   3.803  11.035  0.2734 -0.1670  0.0110
 3966SOL    HW113339   6.505   3.765  11.005 -0.6765 -1.4446 -1.0824
 3966SOL    HW213340   6.421   3.891  10.995  0.0615 -1.0109 -1.9794
 3967SOL     OW13341   7.380   4.774   9.263  0.2079 -0.0559  0.6811
 3967SOL    HW113342   7.394   4.701   9.324  1.4836 -0.2409  0.1957
 3967SOL    HW213343   7.286   4.774   9.246  0.2613 -2.0053  0.1758
 3968SOL     OW13344   1.466   3.273  11.874  0.0804 -0.0120  0.0617
 3968SOL    HW113345   1.481   3.366  11.890 -1.2690  0.3120 -0.3582
 3968SOL    HW213346   1.512   3.228  11.944 -0.2798  1.0329  0.9948
 3969SOL     OW13347   1.079   4.325  10.671  0.0322  0.8177  0.1833
 3969SOL    HW113348   0.987   4.306  10.688 -0.1451  1.5091  0.0047
 3969SOL    HW213349   1.115   4.352  10.756 -0.3173  2.1000 -0.0665
 3970SOL     OW13350   0.712   5.250   9.478 -0.2066  0.5264 -0.1920
 3970SOL    HW113351   0.621   5.275   9.495 -0.3913 -0.9406  1.2088
 3970SOL    HW213352   0.718   5.244   9.383 -1.7188  0.1740 -0.2859
 3971SOL     OW13353   1.148   4.600  11.833 -0.0088  0.3269 -0.5910
 3971SOL    HW113354   1.223   4.647  11.869 -0.6547  0.3918  0.7192
 3971SOL    HW213355   1.141   4.521  11.887 -0.8424  0.2860 -0.7579
 3972SOL     OW13356   2.414   3.947  10.348  0.1858  1.2349 -0.2237
 3972SOL    HW113357   2.330   3.918  10.382  1.0730 -0.5604  0.5733
 3972SOL    HW213358   2.401   3.951  10.253 -0.2376 -1.2277 -0.3503
 3973SOL     OW13359   7.826   5.913   8.837  0.0189 -0.1078  0.2809
 3973SOL    HW113360   7.905   5.869   8.869 -0.4969  0.0206  1.7866
 3973SOL    HW213361   7.770   5.841   8.806  1.3212 -0.1071 -2.3330
 3974SOL     OW13362   1.926   5.496   9.670  0.3532 -0.0127  0.1004
 3974SOL    HW113363   1.930   5.437   9.746  0.7270  0.6442  0.6030
 3974SOL    HW213364   2.016   5.496   9.636  0.7035  1.3242  0.9418
 3975SOL     OW13365   1.023   3.114   9.405  0.2877 -0.0687 -0.6343
 3975SOL    HW113366   0.981   3.163   9.334  2.2163  2.1190 -0.3785
 3975SOL    HW213367   1.108   3.089   9.370  0.7095 -0.1773  0.4283
 3976SOL     OW13368   1.929   6.440  11.060 -0.6960 -0.8132  0.8685
 3976SOL    HW113369   1.953   6.444  10.967  0.8186 -0.4914  1.2404
 3976SOL    HW213370   1.945   6.529  11.093 -2.0312 -0.6942  1.2775
 3977SOL     OW13371   0.455   6.621   1.276 -0.6007 -0.2045  0.3200
 3977SOL    HW113372   0.484   6.674   1.350  1.1666 -1.1859  0.3798
 3977SOL    HW213373   0.533   6.611   1.222 -0.9930 -2.3461  0.0816
 3978SOL     OW13374   1.086   5.168  11.766  0.2801  0.5835 -0.1512
 3978SOL    HW113375   1.156   5.201  11.823  1.5051 -1.9428 -0.0185
 3978SOL    HW213376   1.086   5.073  11.782 -2.3907  0.3488 -1.0871
 3979SOL     OW13377   0.117   5.232  10.069 -0.2925  0.3640 -0.4730
 3979SOL    HW113378   0.117   5.250  10.163  2.5628  0.9626 -0.4892
 3979SOL    HW213379   0.042   5.174  10.055 -0.9453  0.4800  2.1025
 3980SOL     OW13380   1.046   4.253  11.293 -0.2332  0.0915  0.2814
 3980SOL    HW113381   0.999   4.313  11.234 -1.0559 -1.9455 -1.2623
 3980SOL    HW213382   1.109   4.209  11.236  0.2792 -0.5694  1.3459
 3981SOL     OW13383   6.840   2.788  10.682  0.6206 -0.5770  0.5314
 3981SOL    HW113384   6.760   2.814  10.727 -0.0296 -1.9396  0.2064
 3981SOL    HW213385   6.819   2.794  10.589  1.3534  0.3922  0.4129
 3982SOL     OW13386   7.743   5.272   9.726 -0.0071  0.3058 -0.2014
 3982SOL    HW113387   7.813   5.337   9.734 -0.0298  0.3793 -0.5935
 3982SOL    HW213388   7.764   5.223   9.648  0.9100 -1.2713  0.9806
 3983SOL     OW13389   7.792   6.337  10.365  0.4067  0.3105  0.4269
 3983SOL    HW113390   7.784   6.278  10.289  0.4791 -0.4116  0.9642
 3983SOL    HW213391   7.705   6.375  10.376  0.4890  0.7068 -0.2403
 3984SOL     OW13392   1.911   1.946  11.686 -0.0691  0.5089  0.6521
 3984SOL    HW113393   1.816   1.961  11.691 -0.3012 -0.9446  1.2142
 3984SOL    HW213394   1.940   1.999  11.611 -1.8509 -1.2874 -1.4680
 3985SOL     OW13395   7.909   4.005   9.831 -0.1841 -0.4908  0.0869
 3985SOL    HW113396   7.848   4.046   9.770  0.7785 -1.3389 -1.4943
 3985SOL    HW213397   7.859   3.934   9.871 -0.1487 -1.4159 -1.4716
 3986SOL     OW13398   7.455   6.405  10.672  0.0810  0.4558 -0.6284
 3986SOL    HW113399   7.481   6.391  10.763  0.0130 -0.0491 -0.6819
 3986SOL    HW213400   7.520   6.357  10.620  0.4999  1.2738 -0.8860
 3987SOL     OW13401   2.071   4.055   8.771 -0.6671  0.4715 -0.4311
 3987SOL    HW113402   2.125   4.031   8.695 -0.7172 -1.6343  0.1371
 3987SOL    HW213403   2.028   4.136   8.745  0.9614  0.9453 -1.8144
 3988SOL     OW13404   1.025   3.222   8.497  0.2381  0.8314 -0.5306
 3988SOL    HW113405   1.034   3.292   8.562 -0.4398  0.8776 -0.4757
 3988SOL    HW213406   1.014   3.268   8.414  2.2716  0.7719 -0.8760
 3989SOL     OW13407   1.450   3.854   9.472  0.6088  0.7372  0.2997
 3989SOL    HW113408   1.433   3.922   9.538  0.2501  2.1726 -1.2237
 3989SOL    HW213409   1.406   3.777   9.506 -0.3640  1.6928  1.3051
 3990SOL     OW13410   7.994   6.629  10.759  0.2686  0.1473 -0.5669
 3990SOL    HW113411   7.912   6.669  10.729 -0.4623 -0.4271  0.5961
 3990SOL    HW213412   7.974   6.598  10.847  1.7752  0.0719 -0.2341
 3991SOL     OW13413   2.023   4.531  10.066 -0.2295 -0.0591 -0.5721
 3991SOL    HW113414   2.111   4.535  10.028  0.4803 -2.9098  0.4869
 3991SOL    HW213415   2.030   4.577  10.149  0.1360  0.0882 -0.6846
 3992SOL     OW13416   0.566   5.707  10.955 -0.2352 -0.9529  0.4214
 3992SOL    HW113417   0.560   5.774  10.887  0.5766 -1.1475  0.1541
 3992SOL    HW213418   0.619   5.637  10.917  0.5334 -0.9125  1.3697
 3993SOL     OW13419   7.356   3.628  10.320 -0.9348 -0.2232 -0.3166
 3993SOL    HW113420   7.354   3.552  10.377 -1.3158  0.9344  1.3008
 3993SOL    HW213421   7.287   3.612  10.255 -1.2458 -1.0837  0.2137
 3994SOL     OW13422   0.380   5.010  11.006 -0.0788 -0.2356 -0.4992
 3994SOL    HW113423   0.403   4.975  10.920  0.1739 -1.8175  0.1774
 3994SOL    HW213424   0.461   5.002  11.057 -1.1239 -2.8630  0.9670
 3995SOL     OW13425   1.003   3.912  10.862  0.3484 -0.0758  0.3306
 3995SOL    HW113426   0.978   3.957  10.782  0.7297  2.0430  1.3114
 3995SOL    HW213427   0.926   3.920  10.919  0.6057 -0.1933  0.7007
 3996SOL     OW13428   1.248   5.140   9.151 -0.0265 -0.3049 -0.2419
 3996SOL    HW113429   1.295   5.223   9.161  0.4048 -0.4052 -1.2947
 3996SOL    HW213430   1.275   5.088   9.227  0.6225  0.0899 -0.1934
 3997SOL     OW13431   1.146   4.153  11.550 -0.4387  0.3471 -0.4709
 3997SOL    HW113432   1.111   4.181  11.465  1.9077  0.1434 -1.5946
 3997SOL    HW213433   1.188   4.231  11.586 -0.6655  0.2112  0.1015
 3998SOL     OW13434   1.415   2.613   9.854 -0.0098 -0.2248  0.8112
 3998SOL    HW113435   1.481   2.666   9.810 -0.3231 -0.1805  0.3959
 3998SOL    HW213436   1.333   2.659   9.840  0.0609  0.5393  2.6171
 3999SOL     OW13437   1.132   3.164  10.614 -0.1909  0.6376  0.1486
 3999SOL    HW113438   1.095   3.216  10.685 -0.5054  0.3840  0.1744
 3999SOL    HW213439   1.152   3.227  10.545 -0.3930  0.8119  0.2504
 4000SOL     OW13440   5.678   5.552  11.458  0.1540  0.2055  0.0145
 4000SOL    HW113441   5.642   5.637  11.486 -0.8695 -0.2867  0.2534
 4000SOL    HW213442   5.708   5.567  11.369 -0.0408  0.8147  0.0474
 4001SOL     OW13443   1.569   3.732   8.919  0.5078 -0.0012 -0.2982
 4001SOL    HW113444   1.490   3.726   8.973  2.3648  0.2261  2.6850
 4001SOL    HW213445   1.570   3.651   8.868 -1.3792 -0.2011 -0.1067
 4002SOL     OW13446   0.114   6.297  11.153  0.2607 -0.6204 -0.4879
 4002SOL    HW113447   0.204   6.266  11.143  0.1597 -0.3305 -3.0000
 4002SOL    HW213448   0.092   6.277  11.244  2.8809 -0.5855  0.2429
 4003SOL     OW13449   1.298   4.928  10.617 -0.0732  0.5258 -0.1851
 4003SOL    HW113450   1.257   4.872  10.683  0.2825 -1.4056 -1.5197
 4003SOL    HW213451   1.303   5.014  10.658 -0.4504 -0.4563  2.0578
 4004SOL     OW13452   1.456   4.513  11.214  0.1487 -0.0714  0.5662
 4004SOL    HW113453   1.478   4.514  11.121 -0.6451  2.2297  0.3329
 4004SOL    HW213454   1.480   4.425  11.244  2.5636 -0.1591 -1.2835
 4005SOL     OW13455   1.316   5.107   9.437  0.5471 -0.1611 -0.0157
 4005SOL    HW113456   1.316   5.168   9.511  2.3200  1.1346 -1.0269
 4005SOL    HW213457   1.406   5.106   9.406  0.2684 -2.2352 -0.9369
 4006SOL     OW13458   7.845   5.825  11.041  0.7603  0.0591  0.4373
 4006SOL    HW113459   7.927   5.786  11.071  1.1838 -0.2007 -0.9716
 4006SOL    HW213460   7.872   5.893  10.979 -0.0982 -1.2126 -1.4162
 4007SOL     OW13461   1.474   5.601   9.670 -0.4770 -0.0796  0.0900
 4007SOL    HW113462   1.536   5.580   9.600  0.6408  0.2690  0.9407
 4007SOL    HW213463   1.455   5.516   9.711 -1.5824 -0.3617 -0.9793
 4008SOL     OW13464   0.305   4.401  12.154 -0.2266 -0.1305  0.1522
 4008SOL    HW113465   0.226   4.443  12.187 -0.0890  2.6207 -2.5906
 4008SOL    HW213466   0.283   4.375  12.065  1.2340 -1.6600  0.1863
 4009SOL     OW13467   2.190   3.331   9.384  0.2141  0.2799 -0.5506
 4009SOL    HW113468   2.156   3.284   9.308 -0.5175  1.1667 -0.7907
 4009SOL    HW213469   2.278   3.295   9.397  0.1040 -0.3389 -1.4105
 4010SOL     OW13470   6.709   5.017  10.713 -0.0306  0.7879 -0.1783
 4010SOL    HW113471   6.782   4.964  10.682 -0.2312  0.0038  0.6600
 4010SOL    HW213472   6.633   4.982  10.668 -0.1594  0.3704  0.3573
 4011SOL     OW13473   1.434   5.969   9.675  0.5626  0.3387 -0.3301
 4011SOL    HW113474   1.454   6.060   9.651  2.9475 -0.2815 -0.9930
 4011SOL    HW213475   1.458   5.918   9.598 -1.5441 -0.8493 -0.2946
 4012SOL     OW13476   0.709   5.486  10.282  0.4601  0.2453 -0.0910
 4012SOL    HW113477   0.769   5.548  10.239  0.9231 -1.0587 -1.4208
 4012SOL    HW213478   0.766   5.414  10.310 -0.2224 -0.1281  0.3513
 4013SOL     OW13479   7.819   5.192  10.562  0.2502  0.3469 -0.0700
 4013SOL    HW113480   7.769   5.156  10.635 -2.2952  2.0415 -0.8423
 4013SOL    HW213481   7.910   5.171  10.583 -0.5347 -0.8503  2.6185
 4014SOL     OW13482   1.648   3.499   9.452  0.3645 -0.4376 -0.1110
 4014SOL    HW113483   1.588   3.523   9.522 -0.6276  1.1363 -1.4210
 4014SOL    HW213484   1.721   3.561   9.461 -0.0539  0.1750 -0.7924
 4015SOL     OW13485   0.794   4.311  10.755 -0.1401  0.6988 -0.0367
 4015SOL    HW113486   0.733   4.385  10.749 -0.6051  0.2078 -2.1320
 4015SOL    HW213487   0.774   4.271  10.839 -1.9030  1.2614 -0.1407
 4016SOL     OW13488   6.986   3.092   9.287  0.8794 -0.0938  0.4226
 4016SOL    HW113489   6.973   3.002   9.318  0.3319  0.7024  2.6634
 4016SOL    HW213490   6.902   3.135   9.301  0.6244  0.4061 -2.1654
 4017SOL     OW13491   6.590   6.955  11.203  0.0494  0.4385  0.3343
 4017SOL    HW113492   6.627   6.936  11.289  1.5164 -0.6655 -0.4983
 4017SOL    HW213493   6.551   7.042  11.213  1.0295  0.7515  1.8593
 4018SOL     OW13494   7.640   4.607   8.961 -0.1700  0.4317 -0.4473
 4018SOL    HW113495   7.683   4.615   9.046 -0.7717  1.9723 -0.2567
 4018SOL    HW213496   7.557   4.652   8.972 -0.3088  0.5570 -1.8231
 4019SOL     OW13497   0.125   5.413  11.129  0.2392  0.6104  0.2814
 4019SOL    HW113498   0.065   5.358  11.179 -0.1014  0.4933 -0.2442
 4019SOL    HW213499   0.176   5.351  11.076  0.8172  0.7106  0.7058
 4020SOL     OW13500   0.245   3.164  10.107  0.0158 -0.2197 -0.0410
 4020SOL    HW113501   0.288   3.108  10.042 -2.0990 -1.2180 -0.6569
 4020SOL    HW213502   0.237   3.249  10.064 -0.2466 -0.5319 -0.6201
 4021SOL     OW13503   0.037   4.189  10.026  0.4596  0.3583  0.2716
 4021SOL    HW113504  -0.040   4.178  10.082 -0.7483  3.1423 -0.6363
 4021SOL    HW213505   0.018   4.136   9.948  0.9761 -1.4826  1.3571
 4022SOL     OW13506   1.516   5.724  11.517  0.1111  0.3866  0.7555
 4022SOL    HW113507   1.487   5.681  11.598  2.1025 -1.2415  0.6839
 4022SOL    HW213508   1.598   5.680  11.495  0.2492  1.6501 -1.4968
 4023SOL     OW13509   7.979   4.530   9.472 -0.3554  0.1505  0.3649
 4023SOL    HW113510   7.984   4.435   9.457  2.5471  0.2808 -0.1238
 4023SOL    HW213511   7.918   4.562   9.405  0.1496 -1.1611 -0.7664
 4024SOL     OW13512   6.737   5.154  10.187  0.0251 -0.1644 -0.1827
 4024SOL    HW113513   6.766   5.103  10.111 -0.8269 -0.1185 -0.5443
 4024SOL    HW213514   6.654   5.114  10.213 -0.4983  0.8302 -0.2748
 4025SOL     OW13515   0.308   5.284  10.822 -0.5626  0.0906  0.3554
 4025SOL    HW113516   0.259   5.263  10.743  1.2194  0.9619 -1.0455
 4025SOL    HW213517   0.296   5.207  10.878  1.0170 -2.2444 -2.2281
 4026SOL     OW13518   0.910   4.046  11.391 -0.5712  0.3692 -0.1503
 4026SOL    HW113519   0.974   4.110  11.359  0.5412 -0.6782 -0.1078
 4026SOL    HW213520   0.843   4.099  11.433 -0.1207  1.5555 -0.8587
 4027SOL     OW13521   1.504   6.931  10.054  0.3583  0.1644 -0.0081
 4027SOL    HW113522   1.547   7.011  10.084 -0.9701  1.0233 -0.3263
 4027SOL    HW213523   1.450   6.958   9.980  1.7060 -1.4743 -1.7301
 4028SOL     OW13524   1.478   4.530   8.497  0.3042 -0.1121  0.3978
 4028SOL    HW113525   1.391   4.569   8.503 -0.0861 -1.0718  1.4836
 4028SOL    HW213526   1.500   4.532   8.404 -1.4382 -1.0193 -0.0757
 4029SOL     OW13527   0.600   6.100  10.901 -0.2478  0.2568 -0.3020
 4029SOL    HW113528   0.547   6.024  10.879  1.0434 -1.3430  1.7914
 4029SOL    HW213529   0.556   6.141  10.975 -0.8572  1.5537 -1.3207
 4030SOL     OW13530   0.051   4.465  10.724 -0.4720 -0.0117 -0.0012
 4030SOL    HW113531   0.144   4.448  10.709 -0.5290 -0.6991  0.4047
 4030SOL    HW213532   0.029   4.418  10.804 -1.1437  0.2550 -0.0121
 4031SOL     OW13533   1.598   3.429   9.165  0.1680  0.2283  0.1252
 4031SOL    HW113534   1.687   3.401   9.148 -0.0142 -0.1944 -0.1350
 4031SOL    HW213535   1.601   3.468   9.253  0.6506  0.4142  0.0258
 4032SOL     OW13536   1.779   5.608  12.387 -0.1668 -0.0557  0.3585
 4032SOL    HW113537   1.815   5.639  12.471 -0.1052  0.5735  0.1003
 4032SOL    HW213538   1.816   5.667  12.322 -1.9968  0.8851  0.1160
 4033SOL     OW13539   0.056   5.118  10.678 -0.1918  0.8492 -0.8215
 4033SOL    HW113540   0.070   5.024  10.666 -1.7967  0.4848 -0.0563
 4033SOL    HW213541   0.034   5.128  10.770 -0.8936  1.8644 -1.0797
 4034SOL     OW13542   6.942   4.212   9.569  0.1098  0.0441  0.0868
 4034SOL    HW113543   7.011   4.244   9.627  0.1787 -1.1995  0.7387
 4034SOL    HW213544   6.891   4.289   9.546  1.8964  1.0540 -0.6681
 4035SOL     OW13545   0.301   5.809   9.883  0.3239 -0.4630  0.0780
 4035SOL    HW113546   0.387   5.848   9.869  0.7701 -0.9519  1.2768
 4035SOL    HW213547   0.269   5.850   9.963 -1.6748  1.5210 -1.6085
 4036SOL     OW13548   2.780   4.940  10.196 -0.4724 -0.1742  0.1279
 4036SOL    HW113549   2.780   4.949  10.292 -0.0082 -1.4878  0.2715
 4036SOL    HW213550   2.852   4.997  10.168  0.0383 -0.5413  0.6541
 4037SOL     OW13551   1.098   5.210  10.796 -0.2005  0.3790 -0.3475
 4037SOL    HW113552   1.056   5.294  10.777 -0.1918  0.3948 -0.2951
 4037SOL    HW213553   1.113   5.211  10.890  0.4178  0.6087 -0.4417
 4038SOL     OW13554   6.340   4.334  11.157  0.2676 -0.2635  0.1140
 4038SOL    HW113555   6.371   4.256  11.110  1.3233 -0.1103  0.5298
 4038SOL    HW213556   6.347   4.404  11.093  0.7819 -0.2332  0.1987
 4039SOL     OW13557   0.895   4.897  11.002 -0.2042 -0.1210 -0.1374
 4039SOL    HW113558   0.987   4.882  11.025  0.1119  0.7258 -0.7920
 4039SOL    HW213559   0.864   4.812  10.969 -0.0888 -0.8067  1.4310
 4040SOL     OW13560   7.174   6.537  11.190 -0.0938 -0.3102  0.5794
 4040SOL    HW113561   7.233   6.464  11.210  0.3730 -0.5005 -1.2357
 4040SOL    HW213562   7.185   6.598  11.263  1.3291 -0.9697  0.9621
 4041SOL     OW13563   7.453   4.906   9.897  0.0328 -0.6499 -0.0989
 4041SOL    HW113564   7.480   4.816   9.879  2.8694 -0.2879  1.7119
 4041SOL    HW213565   7.517   4.960   9.850 -0.0182  0.3667  0.9394
 4042SOL     OW13566   7.865   5.820   9.796 -0.7245  0.0836  0.4001
 4042SOL    HW113567   7.861   5.891   9.859  2.3238  0.2693  0.5440
 4042SOL    HW213568   7.894   5.861   9.715 -0.1333 -0.7796  0.1519
 4043SOL     OW13569   1.995   3.713  10.155  0.0547 -0.4029  0.1448
 4043SOL    HW113570   2.017   3.805  10.147  0.3729 -0.5905 -1.4372
 4043SOL    HW213571   1.899   3.711  10.153  0.0287 -0.0829  0.7538
 4044SOL     OW13572   7.800   3.667   9.752  0.4401  0.1091  0.0379
 4044SOL    HW113573   7.758   3.597   9.801 -3.0777  2.0271  0.0705
 4044SOL    HW213574   7.844   3.720   9.818 -0.5425  0.2460  0.6072
 4045SOL     OW13575   1.666   6.425   8.938 -0.0063 -0.4826 -0.2562
 4045SOL    HW113576   1.688   6.354   8.878 -2.7223 -0.4927 -1.3970
 4045SOL    HW213577   1.651   6.501   8.882  0.9235  0.5044  0.7750
 4046SOL     OW13578   1.367   5.550   9.994  0.2254 -0.3534  1.0388
 4046SOL    HW113579   1.281   5.577   9.961  0.8289 -1.4225 -1.6603
 4046SOL    HW213580   1.360   5.456  10.006  1.5090 -0.7878 -1.1056
 4047SOL     OW13581   2.989   5.786   8.505 -0.4957  0.1405  0.1290
 4047SOL    HW113582   2.936   5.707   8.504 -0.1786 -0.1607  2.1131
 4047SOL    HW213583   3.079   5.754   8.501 -0.3601  0.3677  1.1468
 4048SOL     OW13584   0.615   5.793  10.609  0.3916  0.4172 -0.3126
 4048SOL    HW113585   0.599   5.883  10.635 -0.0397  0.6812 -1.4386
 4048SOL    HW213586   0.529   5.751  10.615  0.4578  0.2582 -0.4565
 4049SOL     OW13587   1.223   5.521  11.055 -0.5923  0.4152 -0.4185
 4049SOL    HW113588   1.279   5.593  11.086  0.3480 -1.2186  1.9414
 4049SOL    HW213589   1.244   5.514  10.961  0.6228  2.0344 -0.3288
 4050SOL     OW13590   0.950   5.334   8.203 -0.8558 -0.1063 -0.5753
 4050SOL    HW113591   0.986   5.410   8.250 -1.4679 -0.1400 -0.0375
 4050SOL    HW213592   1.023   5.272   8.199 -0.7645 -0.0607  0.2432
 4051SOL     OW13593   1.315   5.769  10.361 -0.4238 -0.1027  0.4439
 4051SOL    HW113594   1.345   5.820  10.286  0.3619 -0.9639  0.1517
 4051SOL    HW213595   1.273   5.692  10.323  0.4025 -0.7894  0.8637
 4052SOL     OW13596   0.235   4.612  11.573  0.2163 -0.1522 -0.5134
 4052SOL    HW113597   0.197   4.617  11.485 -0.7760  1.1642 -0.0441
 4052SOL    HW213598   0.278   4.697  11.585  0.1265 -0.2291  0.3773
 4053SOL     OW13599   1.005   5.466  10.717  0.3724  0.0099  0.5204
 4053SOL    HW113600   0.942   5.524  10.760 -1.7073 -1.4358 -0.4168
 4053SOL    HW213601   1.012   5.500  10.628  0.2095 -0.3670  0.3618
 4054SOL     OW13602   7.771   4.090  10.841  0.1588  0.7546 -0.0337
 4054SOL    HW113603   7.676   4.078  10.841  0.3923 -1.7088 -0.6774
 4054SOL    HW213604   7.799   4.061  10.754  1.6022  0.0800  0.6170
 4055SOL     OW13605   7.854   3.881  11.380  0.2572 -0.5108  0.1339
 4055SOL    HW113606   7.837   3.799  11.333  1.3502 -0.5931 -0.1421
 4055SOL    HW213607   7.929   3.919  11.334  1.1309 -0.4123  1.6003
 4056SOL     OW13608   1.268   4.664  10.341  0.3889  0.2082 -0.0652
 4056SOL    HW113609   1.288   4.576  10.374 -2.5538 -0.6815 -0.2787
 4056SOL    HW213610   1.326   4.675  10.265  1.7873 -0.9447  0.7831
 4057SOL     OW13611   0.878   5.798  10.406  0.0468 -0.1370 -0.1070
 4057SOL    HW113612   0.949   5.854  10.437  0.0982  0.3696 -1.0818
 4057SOL    HW213613   0.812   5.803  10.475  0.9648 -0.6688  0.8384
 4058SOL     OW13614   7.700   4.471   8.708 -0.5847  0.3789 -0.1582
 4058SOL    HW113615   7.782   4.497   8.666 -0.7506 -1.4147 -1.7099
 4058SOL    HW213616   7.689   4.534   8.780  1.4508  1.4684 -0.7236
 4059SOL     OW13617   1.714   5.731  10.365  0.1107  0.0146 -0.8574
 4059SOL    HW113618   1.646   5.696  10.307  0.3724 -0.0611 -1.1219
 4059SOL    HW213619   1.672   5.735  10.451 -0.2074 -0.0962 -1.0055
 4060SOL     OW13620   7.879   4.978   9.827  0.2404 -0.0205  0.7432
 4060SOL    HW113621   7.866   5.063   9.867 -0.1840  0.1781  0.2067
 4060SOL    HW213622   7.793   4.956   9.790  0.3830 -0.6130  0.7541
 4061SOL     OW13623   2.441   6.338  10.576  0.4416  0.1977 -0.1326
 4061SOL    HW113624   2.418   6.321  10.667  1.2864  1.9299  0.4546
 4061SOL    HW213625   2.475   6.428  10.576 -0.8483  0.7614 -2.4027
 4062SOL     OW13626   0.435   5.264  10.252  0.4936  1.0779 -0.6147
 4062SOL    HW113627   0.359   5.229  10.298 -0.0902  1.2337 -1.4244
 4062SOL    HW213628   0.501   5.196  10.259 -0.1985  0.3387 -1.1001
 4063SOL     OW13629   0.555   5.832  10.257 -0.4653 -0.3366 -0.0462
 4063SOL    HW113630   0.554   5.756  10.315 -0.9297  1.0934  1.9429
 4063SOL    HW213631   0.640   5.829  10.215 -0.2756 -1.6557  0.3848
 4064SOL     OW13632   7.342   5.686  10.179  0.3662  0.6897  0.7544
 4064SOL    HW113633   7.358   5.612  10.237 -1.1037  0.8594  1.4249
 4064SOL    HW213634   7.258   5.667  10.138  0.5905  1.3733 -0.0541
 4065SOL     OW13635   0.704   4.214  11.545  0.4242  0.1488 -0.1683
 4065SOL    HW113636   0.724   4.169  11.627  0.7817  1.6359  0.5805
 4065SOL    HW213637   0.609   4.223  11.545  0.2617 -1.2066 -0.6834
 4066SOL     OW13638   2.185   4.654   8.174 -0.4160 -0.0942  0.0467
 4066SOL    HW113639   2.186   4.609   8.258  0.7692  1.1071  0.7018
 4066SOL    HW213640   2.124   4.602   8.120  0.1006 -1.8724  1.0786
 4067SOL     OW13641   0.585   3.924   9.942 -0.2729 -0.6365  0.1418
 4067SOL    HW113642   0.613   4.004   9.897 -2.8761  0.4758  0.2688
 4067SOL    HW213643   0.598   3.855   9.877  0.9436  0.0800 -0.4071
 4068SOL     OW13644   1.744   4.048  11.008  0.3717  0.0702 -0.4347
 4068SOL    HW113645   1.713   4.135  10.982 -1.4724 -0.8850 -1.7167
 4068SOL    HW213646   1.668   4.007  11.049  1.2913 -0.8517  0.4013
 4069SOL     OW13647   3.362   4.845   9.317  0.2870 -0.7808  0.8738
 4069SOL    HW113648   3.416   4.839   9.396  0.4550 -0.5132  0.7840
 4069SOL    HW213649   3.418   4.891   9.254 -0.2329 -0.0120  0.9548
 4070SOL     OW13650   1.983   5.176   9.780 -0.4622 -0.1480  0.8982
 4070SOL    HW113651   1.922   5.186   9.707 -0.9145 -2.5183  0.8872
 4070SOL    HW213652   2.041   5.105   9.753  2.1633  1.8034  1.0518
 4071SOL     OW13653   7.843   4.881  11.071 -0.1239 -0.0536  0.3339
 4071SOL    HW113654   7.814   4.834  11.150  1.0271  1.1015  1.4858
 4071SOL    HW213655   7.926   4.840  11.047  0.2122  0.5018  0.5431
 4072SOL     OW13656   0.900   4.894   8.856 -0.4226  0.6027 -0.5879
 4072SOL    HW113657   0.819   4.895   8.907 -0.4071 -2.0546 -0.4129
 4072SOL    HW213658   0.870   4.905   8.765 -1.2514 -2.2412 -0.7369
 4073SOL     OW13659   0.729   5.194   9.205 -0.0572  0.3956 -0.3292
 4073SOL    HW113660   0.664   5.139   9.161 -0.4541 -0.9784  1.8070
 4073SOL    HW213661   0.811   5.176   9.159 -0.4822 -0.8003 -0.6582
 4074SOL     OW13662   0.662   6.239   7.703 -0.4563 -0.0092 -0.6309
 4074SOL    HW113663   0.627   6.162   7.748 -1.0871  0.2669 -0.6418
 4074SOL    HW213664   0.752   6.246   7.735 -1.1263  0.6573  1.2147
 4075SOL     OW13665   0.137   3.915  12.057 -0.5518  0.0046  0.1892
 4075SOL    HW113666   0.195   3.856  12.106 -1.8489 -0.3841  1.3232
 4075SOL    HW213667   0.106   3.977  12.122  0.4608  1.7450 -0.9135
 4076SOL     OW13668   0.290   5.604  10.191 -0.1124 -1.2611 -0.1455
 4076SOL    HW113669   0.335   5.665  10.133 -1.6717  0.2855  0.1891
 4076SOL    HW213670   0.284   5.650  10.275  0.0598 -2.5294  0.5958
 4077SOL     OW13671   0.010   4.916  11.629  0.6326 -0.1053 -0.5093
 4077SOL    HW113672  -0.065   4.948  11.678  0.0931 -2.1044  0.0897
 4077SOL    HW213673   0.086   4.957  11.672  0.1181 -1.2069  1.5793
 4078SOL     OW13674   1.066   4.821  11.560 -0.2468 -0.0810 -0.6587
 4078SOL    HW113675   1.097   4.880  11.491 -0.4019 -0.2884 -0.9067
 4078SOL    HW213676   1.114   4.849  11.638 -0.3237  0.3758 -0.7729
 4079SOL     OW13677   7.106   5.188  10.075  1.0245  0.0874  0.0230
 4079SOL    HW113678   7.105   5.107  10.127  0.1318  0.1546  0.1336
 4079SOL    HW213679   7.180   5.178  10.016  0.6488 -1.0312 -0.2846
 4080SOL     OW13680   2.927   6.176   9.568 -0.0771 -0.5440  0.4874
 4080SOL    HW113681   2.909   6.260   9.526  2.0835 -0.5794 -0.5983
 4080SOL    HW213682   2.924   6.112   9.497 -0.5670 -1.2385  1.1170
 4081SOL     OW13683   7.301   5.932  10.893 -0.5487 -0.0876  0.2923
 4081SOL    HW113684   7.346   5.858  10.853  1.7459  0.1851  2.1795
 4081SOL    HW213685   7.326   6.008  10.840 -0.0154 -0.1666  0.4290
 4082SOL     OW13686   1.421   5.278   9.697 -0.2332 -0.5112  0.0157
 4082SOL    HW113687   1.442   5.245   9.784 -1.0990  0.9544  0.8228
 4082SOL    HW213688   1.505   5.277   9.651  0.4054 -0.5374  1.1307
 4083SOL     OW13689   1.221   3.974   9.331  0.1318 -0.1061  0.1610
 4083SOL    HW113690   1.294   3.916   9.351 -0.0891 -0.3015  0.4157
 4083SOL    HW213691   1.261   4.057   9.305  0.4383  0.3011  1.8372
 4084SOL     OW13692   1.439   4.963   9.867 -0.2508  0.3050 -0.4061
 4084SOL    HW113693   1.427   4.934   9.777 -2.3724 -0.1554 -0.0426
 4084SOL    HW213694   1.524   4.926   9.893 -0.4679 -1.1702 -1.6270
 4085SOL     OW13695   0.333   5.214   8.833 -0.5310  0.3031 -0.4847
 4085SOL    HW113696   0.425   5.224   8.809 -0.2616  2.3869  1.0903
 4085SOL    HW213697   0.306   5.301   8.861 -2.9460 -0.3113 -0.6800
 4086SOL     OW13698   7.220   4.733   8.615 -0.3900 -0.3936  0.1038
 4086SOL    HW113699   7.255   4.679   8.545 -0.6837 -0.1874 -0.2093
 4086SOL    HW213700   7.205   4.819   8.574 -0.3877 -0.2174  0.4659
 4087SOL     OW13701   7.320   3.365   9.030  0.2351 -0.3999 -0.5470
 4087SOL    HW113702   7.337   3.351   9.123 -2.6718 -0.3803  0.0812
 4087SOL    HW213703   7.373   3.441   9.007 -1.6893  2.0025  2.1193
 4088SOL     OW13704   1.810   5.497  10.067  0.1282  0.3158  0.4630
 4088SOL    HW113705   1.804   5.463  10.157 -1.1026 -2.4546 -0.5408
 4088SOL    HW213706   1.870   5.437  10.023 -1.2841  0.0332 -1.1736
 4089SOL     OW13707   0.075   3.859   9.588 -0.1119 -0.1022 -0.1498
 4089SOL    HW113708  -0.016   3.851   9.618 -0.0895  1.0247  0.2576
 4089SOL    HW213709   0.067   3.883   9.496 -0.2293 -0.0433 -0.1253
 4090SOL     OW13710   1.135   4.861   8.178 -0.5311 -0.7602 -0.3156
 4090SOL    HW113711   1.119   4.826   8.090  0.7856 -1.5443 -0.2683
 4090SOL    HW213712   1.168   4.786   8.227  2.6393  0.5444 -0.2613
 4091SOL     OW13713   1.125   4.457   9.408  0.2128 -0.8649 -0.0368
 4091SOL    HW113714   1.095   4.376   9.367 -1.2585 -1.0325  1.2587
 4091SOL    HW213715   1.070   4.525   9.370  1.7880 -0.3350 -1.5052
 4092SOL     OW13716   0.728   3.885   1.585 -0.2669  0.3981  0.5702
 4092SOL    HW113717   0.804   3.927   1.625 -1.3943  1.9068  1.1869
 4092SOL    HW213718   0.654   3.941   1.607 -1.3345 -0.1113 -1.4496
 4093SOL     OW13719   7.877   3.950   0.442  0.3139 -0.0096 -0.5212
 4093SOL    HW113720   7.886   3.936   0.536  2.9712 -0.9939 -0.8264
 4093SOL    HW213721   7.917   4.035   0.426 -0.6962  0.4409 -0.7070
 4094SOL     OW13722   0.797   5.026  11.216 -0.2299  0.2126 -0.2128
 4094SOL    HW113723   0.759   4.943  11.246 -1.4979  0.6186 -0.6423
 4094SOL    HW213724   0.848   5.002  11.139 -0.3658 -0.2094 -0.1756
 4095SOL     OW13725   0.860   4.798  12.299 -0.0467 -0.0686 -0.2484
 4095SOL    HW113726   0.931   4.739  12.325 -0.9793 -1.8545 -1.5097
 4095SOL    HW213727   0.780   4.750  12.320 -0.8501  0.8094 -1.1703
 4096SOL     OW13728   1.878   3.248  12.041  0.0501 -0.3485 -0.0846
 4096SOL    HW113729   1.902   3.232  11.949  1.1293  0.1695  0.0892
 4096SOL    HW213730   1.954   3.216  12.091 -0.3615 -0.2572  0.6047
 4097SOL     OW13731   0.393   4.910  10.766  0.2414 -0.4907 -0.1077
 4097SOL    HW113732   0.395   4.819  10.795  0.5012 -0.0763  1.2392
 4097SOL    HW213733   0.347   4.908  10.682 -1.5717 -1.6065  0.8609
 4098SOL     OW13734   0.842   1.924  11.365 -0.3683 -0.5020  0.2524
 4098SOL    HW113735   0.767   1.934  11.424 -0.9736 -0.2144 -0.5457
 4098SOL    HW213736   0.808   1.946  11.278  0.7457  0.0578 -0.0725
 4099SOL     OW13737   3.168   5.216   2.302  0.3145 -0.1383 -0.1672
 4099SOL    HW113738   3.072   5.212   2.310  0.2758 -0.8085 -0.8203
 4099SOL    HW213739   3.183   5.224   2.208  0.8347  3.2422  0.0791
 4100SOL     OW13740   1.323   5.062   1.378 -0.2248  0.3846 -0.3737
 4100SOL    HW113741   1.260   5.096   1.442 -1.3408 -0.3092 -1.0740
 4100SOL    HW213742   1.387   5.013   1.431 -1.8374 -1.2617  0.1314
 4101SOL     OW13743   1.566   5.322   1.999  0.3603 -0.0597  0.7318
 4101SOL    HW113744   1.526   5.258   1.939  0.2448  0.4196  0.2848
 4101SOL    HW213745   1.658   5.296   2.004  0.6741  0.6450 -0.6988
 4102SOL     OW13746   0.550   4.717   1.457 -0.5538 -0.9346 -0.1460
 4102SOL    HW113747   0.490   4.668   1.514 -0.5075 -0.7267  0.0784
 4102SOL    HW213748   0.544   4.671   1.372 -2.0965 -0.0886 -0.5378
 4103SOL     OW13749   0.429   4.755  12.017 -0.0857 -0.5178 -0.1658
 4103SOL    HW113750   0.511   4.708  12.004  0.2510  0.1656 -0.5486
 4103SOL    HW213751   0.367   4.712  11.957 -0.6040 -2.3988  1.5839
 4104SOL     OW13752   7.206   4.440   0.205 -0.3046 -0.5361 -0.1589
 4104SOL    HW113753   7.175   4.354   0.177 -0.1241 -0.5292 -0.3845
 4104SOL    HW213754   7.154   4.502   0.152 -1.2515 -0.4663  0.8150
 4105SOL     OW13755   7.975   4.416  11.499 -0.1241 -0.6700 -0.1055
 4105SOL    HW113756   8.056   4.365  11.502  0.5551  0.2959 -1.1592
 4105SOL    HW213757   8.002   4.506  11.517 -1.0129 -0.3868 -0.1190
 4106SOL     OW13758   7.794   4.179  10.148 -0.1357 -0.4248 -0.1271
 4106SOL    HW113759   7.756   4.261  10.119  1.2557  0.0575 -0.6663
 4106SOL    HW213760   7.730   4.143  10.210 -0.6401  1.1834  0.3338
 4107SOL     OW13761   0.375   4.297   0.606  0.2855 -0.2338  0.6963
 4107SOL    HW113762   0.335   4.257   0.529 -1.6282  1.8041  0.5235
 4107SOL    HW213763   0.326   4.378   0.619  2.6787  1.1003  2.1448
 4108SOL     OW13764   1.585   6.431  11.439  0.2292  0.1386  0.3496
 4108SOL    HW113765   1.597   6.487  11.515  0.9014  2.6603 -1.4628
 4108SOL    HW213766   1.501   6.458  11.402 -0.3288 -1.3974  0.4307
 4109SOL     OW13767   6.198   4.638  10.882  0.4409  0.2166  0.5180
 4109SOL    HW113768   6.209   4.722  10.836  1.2355 -0.3288 -0.3317
 4109SOL    HW213769   6.277   4.588  10.859 -0.0515 -0.7819  0.9595
 4110SOL     OW13770   2.803   4.282  11.538 -0.4433 -0.1924  0.0085
 4110SOL    HW113771   2.822   4.362  11.586  0.0523  0.1741 -0.7729
 4110SOL    HW213772   2.735   4.238  11.589 -0.1946  0.3672  0.8263
 4111SOL     OW13773   3.195   5.698  10.724 -0.8037  0.0521  0.1320
 4111SOL    HW113774   3.178   5.704  10.818  0.4033 -1.7737  0.5185
 4111SOL    HW213775   3.290   5.713  10.716 -0.2409 -3.1395 -0.3337
 4112SOL     OW13776   0.462   3.892   1.409 -0.1985 -0.0889 -0.0416
 4112SOL    HW113777   0.450   3.882   1.503 -3.4849 -1.8967 -0.5028
 4112SOL    HW213778   0.435   3.982   1.391  1.5296  0.6455  0.8002
 4113SOL     OW13779   0.873   4.305   0.169 -0.0675  0.0798  0.1892
 4113SOL    HW113780   0.787   4.318   0.131 -0.0097 -0.8952 -0.3227
 4113SOL    HW213781   0.922   4.385   0.147 -0.1798 -0.2613 -1.4152
 4114SOL     OW13782   7.626   4.236  11.179  0.5767 -0.2502  0.1258
 4114SOL    HW113783   7.548   4.285  11.153  0.7919 -0.5220 -1.1183
 4114SOL    HW213784   7.694   4.266  11.119  1.3193 -0.3542  0.8946
 4115SOL     OW13785   1.352   3.601   0.708 -0.7439  0.0179 -0.3790
 4115SOL    HW113786   1.394   3.537   0.650 -1.0685  1.4534 -2.2899
 4115SOL    HW213787   1.419   3.623   0.772 -0.0120 -0.8519 -0.8155
 4116SOL     OW13788   2.065   3.438  11.678  0.2182  0.2045  0.2779
 4116SOL    HW113789   2.093   3.357  11.722  0.7160  0.8046  1.0935
 4116SOL    HW213790   2.114   3.439  11.596  1.0471  0.2214  0.7609
 4117SOL     OW13791   2.939   3.474  12.234 -0.1220  0.2946  0.2137
 4117SOL    HW113792   2.868   3.422  12.198 -0.6321 -0.6741  2.4503
 4117SOL    HW213793   3.018   3.424  12.215 -0.1914  0.5436 -0.8027
 4118SOL     OW13794   1.795   6.168   0.963  0.0904 -0.6460  0.4322
 4118SOL    HW113795   1.741   6.100   1.003 -0.3700  0.1112  1.1262
 4118SOL    HW213796   1.776   6.247   1.014 -0.6464  0.4081 -1.3837
 4119SOL     OW13797   0.557   5.153  10.534 -0.0362 -0.5226 -0.5046
 4119SOL    HW113798   0.532   5.231  10.584  2.2135 -0.2022  0.2255
 4119SOL    HW213799   0.598   5.188  10.455 -1.2362 -1.0119 -1.3625
 4120SOL     OW13800   0.130   4.683  11.345  0.5730 -0.1352 -0.5888
 4120SOL    HW113801   0.093   4.771  11.348  0.9769  0.0166 -0.1203
 4120SOL    HW213802   0.085   4.641  11.271  0.4279  0.4808 -0.8516
 4121SOL     OW13803   1.407   5.932  10.155 -0.1110 -0.1219 -0.5009
 4121SOL    HW113804   1.488   5.897  10.118  0.0665 -0.3262  0.0667
 4121SOL    HW213805   1.352   5.952  10.079  1.1832  1.8346 -0.9937
 4122SOL     OW13806   1.533   4.900   1.440 -0.2585 -0.7167 -0.4221
 4122SOL    HW113807   1.559   4.819   1.484 -0.4265  0.0827  1.2211
 4122SOL    HW213808   1.596   4.910   1.370  1.1470 -1.1256  0.7249
 4123SOL     OW13809   1.331   6.375  10.150 -0.6561  0.1551 -0.0476
 4123SOL    HW113810   1.339   6.346  10.241 -3.3350  0.1099  0.2430
 4123SOL    HW213811   1.339   6.295  10.098  0.0809  0.0747  0.1739
 4124SOL     OW13812   7.982   6.036   0.628 -0.3985 -0.2253  0.5279
 4124SOL    HW113813   7.944   5.952   0.601  2.6314 -1.8668  0.9401
 4124SOL    HW213814   8.001   6.082   0.546 -0.7495 -0.5688  0.2503
 4125SOL     OW13815   7.184   6.092   2.017 -0.2055 -0.2817  0.7276
 4125SOL    HW113816   7.098   6.117   1.983 -0.3736 -0.2581  1.1632
 4125SOL    HW213817   7.165   6.027   2.085  0.0078  0.7571  1.8181
 4126SOL     OW13818   1.162   4.698  10.790 -0.6946  0.1460  0.3252
 4126SOL    HW113819   1.169   4.602  10.788  1.4593  0.2725 -1.4164
 4126SOL    HW213820   1.214   4.724  10.866  0.7604  0.0132 -0.5945
 4127SOL     OW13821   0.899   5.296  10.371 -0.1101 -0.0803  0.3101
 4127SOL    HW113822   0.922   5.234  10.302 -3.3664 -1.0309 -0.1042
 4127SOL    HW213823   0.953   5.270  10.446  0.5056 -1.7359 -0.6646
 4128SOL     OW13824   7.987   2.347   0.351  0.1326  0.3243 -0.2081
 4128SOL    HW113825   8.076   2.328   0.379  1.2166  1.3754 -2.7301
 4128SOL    HW213826   7.943   2.378   0.430  1.6797 -1.1040  1.2929
 4129SOL     OW13827   1.810   4.805  11.754  0.1168 -0.4527  0.2569
 4129SOL    HW113828   1.860   4.726  11.775  2.1737 -0.3227 -3.4459
 4129SOL    HW213829   1.841   4.870  11.817  2.5509 -1.1717 -0.1152
 4130SOL     OW13830   2.964   4.207   0.197 -0.3934  0.6222  0.6469
 4130SOL    HW113831   3.042   4.258   0.171 -1.5792  2.7398  0.9937
 4130SOL    HW213832   2.941   4.158   0.118  1.3504 -0.1581  0.5745
 4131SOL     OW13833   0.929   3.854  12.162  0.2156 -0.0936  0.4604
 4131SOL    HW113834   0.947   3.810  12.079 -3.0482  0.8002 -0.8484
 4131SOL    HW213835   1.016   3.881  12.194  1.5571  0.0362 -2.9282
 4132SOL     OW13836   7.796   4.162  11.766  0.1252  0.0293  0.0440
 4132SOL    HW113837   7.828   4.202  11.846  0.4572  0.0565 -0.1023
 4132SOL    HW213838   7.769   4.235  11.711 -2.6901 -0.0289  1.1686
 4133SOL     OW13839   1.856   4.316   1.437  0.0848 -0.5458  0.4495
 4133SOL    HW113840   1.784   4.270   1.481 -0.3044  0.9640  1.4693
 4133SOL    HW213841   1.836   4.306   1.344 -0.9223 -0.9746  0.6887
 4134SOL     OW13842   7.048   6.384  11.794 -0.2073  0.0109 -0.1146
 4134SOL    HW113843   7.083   6.406  11.880  0.5707 -2.1583  0.1856
 4134SOL    HW213844   6.958   6.355  11.812 -0.6835  1.3124 -0.3037
 4135SOL     OW13845   2.231   6.817  11.279 -0.1471 -0.1995  0.2717
 4135SOL    HW113846   2.142   6.836  11.309 -0.5938 -1.3233 -0.2717
 4135SOL    HW213847   2.286   6.881  11.324 -1.4091  1.6246 -0.6768
 4136SOL     OW13848   0.292   5.913  10.526 -0.3049 -0.0382 -0.4777
 4136SOL    HW113849   0.220   5.954  10.479 -0.2469 -0.6092 -1.0843
 4136SOL    HW213850   0.267   5.821  10.532 -0.6057  0.1283  1.1908
 4137SOL     OW13851   0.384   4.007   0.096 -0.1798 -0.3410  0.0780
 4137SOL    HW113852   0.326   4.032   0.024 -0.8737  3.6688  1.7537
 4137SOL    HW213853   0.471   4.001   0.057 -0.7938  0.0253 -1.4053
 4138SOL     OW13854   1.717   4.200   0.753 -0.1164  0.4066  0.5441
 4138SOL    HW113855   1.685   4.254   0.825 -1.3090  2.1566 -1.1912
 4138SOL    HW213856   1.666   4.228   0.677  0.7106 -1.7223 -0.9071
 4139SOL     OW13857   1.572   5.404   1.312  0.3006  0.1814  0.2815
 4139SOL    HW113858   1.574   5.484   1.260 -0.3431 -0.6820 -1.1096
 4139SOL    HW213859   1.494   5.358   1.283  0.2744 -0.6298  1.5705
 4140SOL     OW13860   7.836   3.779  11.947 -0.0931 -0.0352 -0.1889
 4140SOL    HW113861   7.841   3.780  12.042  0.7122 -0.0026 -0.2227
 4140SOL    HW213862   7.910   3.833  11.918 -0.1790 -0.2467 -0.8293
 4141SOL     OW13863   7.198   4.784   0.021  0.2428 -0.1347  0.2731
 4141SOL    HW113864   7.274   4.758  -0.031  0.1109  0.4791 -0.2519
 4141SOL    HW213865   7.201   4.880   0.020 -0.6067 -0.1045  0.1339
 4142SOL     OW13866   2.123   4.289  11.857 -1.2000 -1.0363 -0.0150
 4142SOL    HW113867   2.145   4.355  11.923 -0.0653 -2.9755  1.6710
 4142SOL    HW213868   2.028   4.294  11.849 -1.1076  1.1977 -0.4531
 4143SOL     OW13869   7.867   3.471   0.663 -0.3108 -0.8707 -0.9919
 4143SOL    HW113870   7.777   3.501   0.647 -0.1883  0.0450 -0.0389
 4143SOL    HW213871   7.907   3.469   0.577 -0.7556  0.3297 -1.2434
 4144SOL     OW13872   0.382   4.662  10.840  0.0632 -0.1766 -0.1123
 4144SOL    HW113873   0.405   4.596  10.774  0.7202 -0.3300  0.2637
 4144SOL    HW213874   0.372   4.613  10.921  1.2624  0.2514  0.3255
 4145SOL     OW13875   2.027   4.870  11.078 -0.3642 -0.0961  0.0673
 4145SOL    HW113876   2.030   4.824  10.994 -1.5993  0.6227 -0.3947
 4145SOL    HW213877   1.949   4.836  11.121 -0.1320  0.0626  0.6126
 4146SOL     OW13878   7.930   3.256  10.424  0.0358  0.1485  0.4213
 4146SOL    HW113879   7.974   3.341  10.424 -1.0597  0.7593 -0.9853
 4146SOL    HW213880   7.968   3.209  10.350  1.3809 -1.0584  1.7919
 4147SOL     OW13881   0.298   3.927  11.044 -0.8353  0.1236  0.2237
 4147SOL    HW113882   0.297   3.944  10.949  1.0728  0.3216  0.1966
 4147SOL    HW213883   0.294   4.014  11.083  0.6975  0.2292  0.2359
 4148SOL     OW13884   7.756   4.763  11.305  0.0881  0.2683 -0.5387
 4148SOL    HW113885   7.740   4.676  11.269  0.4123  0.0472 -0.1586
 4148SOL    HW213886   7.776   4.748  11.397 -1.3569  0.8927 -0.1068
 4149SOL     OW13887   6.906   5.365  11.136  0.4273  0.0311  0.2046
 4149SOL    HW113888   6.847   5.440  11.131  2.3251  1.7973  2.1480
 4149SOL    HW213889   6.858   5.299  11.186 -0.2033  1.1328  1.0870
 4150SOL     OW13890   1.267   6.040   0.442  0.0566 -0.6611 -0.0441
 4150SOL    HW113891   1.326   6.043   0.366  2.4758 -1.8182  1.6594
 4150SOL    HW213892   1.268   6.130   0.476  0.9669 -0.6835  0.0168
 4151SOL     OW13893   0.167   3.403  10.726 -0.9289 -0.0643  0.3683
 4151SOL    HW113894   0.146   3.496  10.737  1.5478  0.4843  1.0404
 4151SOL    HW213895   0.239   3.402  10.664 -0.3733 -1.4663  0.9972
 4152SOL     OW13896   7.675   4.137  11.441  0.6685  0.4125 -0.5740
 4152SOL    HW113897   7.722   4.063  11.403  0.5107  0.4095 -0.7677
 4152SOL    HW213898   7.614   4.165  11.372 -0.6595 -0.5074  0.1754
 4153SOL     OW13899   6.268   5.815  11.594 -0.0785 -0.8005 -0.3728
 4153SOL    HW113900   6.251   5.908  11.607 -0.3479 -1.1301  2.0121
 4153SOL    HW213901   6.362   5.810  11.575  0.7326 -0.2280  2.8857
 4154SOL     OW13902   1.636   4.469  11.655  0.0199  0.0589 -0.1069
 4154SOL    HW113903   1.590   4.550  11.631 -0.1696  0.5484  1.7060
 4154SOL    HW213904   1.721   4.476  11.612 -0.2922  0.8480 -0.6234
 4155SOL     OW13905   2.327   3.871  12.347 -0.1081  0.2154  0.4686
 4155SOL    HW113906   2.285   3.931  12.409  0.3315  0.1616  0.8198
 4155SOL    HW213907   2.421   3.888  12.357  0.0271 -0.5949  0.6327
 4156SOL     OW13908   1.302   5.398   0.631 -0.1833  0.3609 -0.0303
 4156SOL    HW113909   1.382   5.346   0.620  0.1253  0.5954  1.0447
 4156SOL    HW213910   1.249   5.375   0.555  1.5509  1.3929 -1.6732
 4157SOL     OW13911   0.216   4.793  12.272  0.5503 -0.4884  0.5828
 4157SOL    HW113912   0.185   4.800  12.182  1.4293 -0.2088  0.2857
 4157SOL    HW213913   0.312   4.791  12.264  0.6154 -2.1611  1.4029
 4158SOL     OW13914   1.015   5.802  12.143  0.1363  0.2655  0.2648
 4158SOL    HW113915   0.954   5.730  12.125  1.4574 -1.1868  1.3252
 4158SOL    HW213916   1.066   5.811  12.063  1.1353 -1.2208  0.6907
 4159SOL     OW13917   1.577   5.964  10.571  0.0034 -0.1730 -0.4350
 4159SOL    HW113918   1.570   6.016  10.651 -1.3213  0.6886 -1.0634
 4159SOL    HW213919   1.508   5.898  10.579 -0.7074  0.4532 -1.2106
 4160SOL     OW13920   7.562   2.786  10.069 -0.0042  0.2043 -0.1515
 4160SOL    HW113921   7.564   2.832   9.985  1.2523 -0.3015 -0.4272
 4160SOL    HW213922   7.629   2.718  10.060 -2.1036 -2.0181  0.0538
 4161SOL     OW13923   0.638   3.040  11.730 -0.0804 -0.6086  0.2342
 4161SOL    HW113924   0.629   3.090  11.811 -0.1042 -1.8232  1.0105
 4161SOL    HW213925   0.559   2.986  11.726 -0.1390 -0.4564 -0.6695
 4162SOL     OW13926   0.247   4.112   0.752  0.0187 -0.0573 -0.0995
 4162SOL    HW113927   0.196   4.063   0.687  0.7596  0.8232 -1.4094
 4162SOL    HW213928   0.287   4.183   0.701  1.5544 -0.0124  1.1072
 4163SOL     OW13929   0.448   5.043  11.414 -0.0792 -0.3427  0.3838
 4163SOL    HW113930   0.494   5.126  11.401 -0.8957  0.1379  0.4943
 4163SOL    HW213931   0.424   5.014  11.325  2.2593 -1.6943  0.1090
 4164SOL     OW13932   1.061   6.238   9.948 -0.2867 -0.7035 -0.1811
 4164SOL    HW113933   1.005   6.162   9.931 -0.5347 -0.2067 -1.7525
 4164SOL    HW213934   1.075   6.277   9.862  0.7846  0.3827  0.4547
 4165SOL     OW13935   3.118   3.930  12.388 -0.2832 -0.5885  0.0596
 4165SOL    HW113936   3.207   3.898  12.406  0.7190  0.5106 -2.4438
 4165SOL    HW213937   3.090   3.880  12.312 -1.1858  0.1555 -0.1085
 4166SOL     OW13938   7.315   4.293  10.718  0.4636 -0.4939 -0.0089
 4166SOL    HW113939   7.374   4.290  10.642 -1.1433 -2.2342 -1.2855
 4166SOL    HW213940   7.351   4.362  10.773  1.6399  0.9587 -2.4104
 4167SOL     OW13941   6.803   2.662  11.575 -0.3395 -0.2782 -0.4632
 4167SOL    HW113942   6.830   2.680  11.665  0.0993 -1.3955 -0.3605
 4167SOL    HW213943   6.719   2.708  11.566 -1.2173 -1.4890  1.0552
 4168SOL     OW13944   0.933   5.578   9.708  0.2418 -0.1331  0.0417
 4168SOL    HW113945   0.952   5.534   9.625 -0.4920  0.9654 -0.7327
 4168SOL    HW213946   0.891   5.660   9.683  1.6228  1.0679  1.4241
 4169SOL     OW13947   2.648   5.156  12.140 -0.2247 -0.6470 -0.0103
 4169SOL    HW113948   2.606   5.078  12.178 -0.0847 -1.1283 -0.8166
 4169SOL    HW213949   2.699   5.193  12.212  0.8411 -2.1107  0.0422
 4170SOL     OW13950   0.831   3.524  11.813  0.6517  0.4039  0.0289
 4170SOL    HW113951   0.878   3.497  11.734  0.5304 -1.3273  0.4969
 4170SOL    HW213952   0.894   3.513  11.884  0.7290  1.8484  0.2070
 4171SOL     OW13953   0.962   4.018   0.767  0.7059 -0.0659 -0.0197
 4171SOL    HW113954   1.037   4.075   0.753 -1.3164  2.1659 -2.7890
 4171SOL    HW213955   0.942   3.982   0.681 -2.1928  0.5234  0.3196
 4172SOL     OW13956   0.690   4.618   0.670  0.3139  0.2063  0.3882
 4172SOL    HW113957   0.655   4.694   0.717  0.6617 -0.2686  1.4479
 4172SOL    HW213958   0.785   4.628   0.676  0.3592 -0.1450  0.2573
 4173SOL     OW13959   0.885   4.075  12.326 -0.0501 -0.2086 -0.2060
 4173SOL    HW113960   0.917   3.993  12.288 -0.1672 -0.4025  0.1104
 4173SOL    HW213961   0.880   4.135  12.252  1.9913  0.1284 -0.1257
 4174SOL     OW13962   6.509   6.001  10.742  0.1605 -0.3772  0.3752
 4174SOL    HW113963   6.488   5.945  10.667 -0.5190 -0.2233  0.4470
 4174SOL    HW213964   6.461   6.082  10.726  1.0959  0.1854  0.2982
 4175SOL     OW13965   0.542   3.653  10.665  0.1936 -0.1768  0.0422
 4175SOL    HW113966   0.622   3.661  10.612  0.8721  0.0189  1.0731
 4175SOL    HW213967   0.479   3.610  10.607  1.2960 -1.0657 -0.5267
 4176SOL     OW13968   7.954   5.213   1.222 -0.0166 -0.2110  0.3825
 4176SOL    HW113969   7.879   5.253   1.178  0.7259 -0.3014 -1.0148
 4176SOL    HW213970   7.967   5.267   1.300 -0.5143  0.8130 -0.2221
 4177SOL     OW13971   7.248   4.342  11.787 -0.4900  0.3373 -0.1214
 4177SOL    HW113972   7.286   4.409  11.730 -0.3875  1.1461  0.8636
 4177SOL    HW213973   7.289   4.358  11.873 -0.7223 -0.7767  0.2089
 4178SOL     OW13974   7.818   4.436  10.570  0.0934  0.6670  0.2147
 4178SOL    HW113975   7.903   4.474  10.592  1.7002 -1.5335 -1.5750
 4178SOL    HW213976   7.841   4.355  10.523 -3.0228 -0.3563  0.2778
 4179SOL     OW13977   0.463   4.291  10.057  0.1574  0.2625 -0.4444
 4179SOL    HW113978   0.436   4.245   9.977 -0.5688  2.5334 -1.5971
 4179SOL    HW213979   0.380   4.321  10.096  0.4615 -1.3109  1.5291
 4180SOL     OW13980   2.107   3.811  12.190  0.1014  0.6335  0.2053
 4180SOL    HW113981   2.077   3.900  12.171 -2.6242  0.2050  1.8583
 4180SOL    HW213982   2.197   3.822  12.221 -0.2165  2.8518  0.5101
 4181SOL     OW13983   0.860   4.837  10.013 -0.0972 -0.0536  0.2461
 4181SOL    HW113984   0.923   4.775  10.049 -0.2706 -0.0593  0.5444
 4181SOL    HW213985   0.790   4.840  10.079 -0.7929 -0.6549 -0.4488
 4182SOL     OW13986   1.435   5.698  12.006 -0.6194  0.3744 -0.1027
 4182SOL    HW113987   1.527   5.706  12.031 -0.2108  1.9766 -1.8272
 4182SOL    HW213988   1.394   5.651  12.078  1.4999 -0.1668  0.8253
 4183SOL     OW13989   0.180   6.584  11.143  0.2493  0.0546  0.2691
 4183SOL    HW113990   0.157   6.653  11.081  0.6717  0.0988  0.1547
 4183SOL    HW213991   0.148   6.503  11.103  1.1447 -0.0066 -0.3559
 4184SOL     OW13992   1.235   3.717   0.070 -0.6484  0.3660 -0.4064
 4184SOL    HW113993   1.308   3.765   0.109 -1.3041  1.3616 -0.3551
 4184SOL    HW213994   1.164   3.725   0.134 -0.3767 -1.9144  0.2732
 4185SOL     OW13995   1.225   3.223   1.379  0.4519  0.4665  0.0627
 4185SOL    HW113996   1.187   3.274   1.307 -0.0927 -1.5963 -1.2027
 4185SOL    HW213997   1.272   3.287   1.432 -0.6964  2.3500 -1.0920
 4186SOL     OW13998   0.810   4.086  11.762 -0.3584  0.5227 -0.8487
 4186SOL    HW113999   0.762   4.122  11.837  1.6912  1.0633  0.2560
 4186SOL    HW214000   0.814   3.992  11.780 -1.1141  0.4409 -1.0475
 4187SOL     OW14001   7.683   5.280  12.290  0.3550 -0.5868  0.3326
 4187SOL    HW114002   7.716   5.228  12.217  0.6096 -1.0645  0.7842
 4187SOL    HW214003   7.590   5.258  12.296  0.4121 -0.8184  0.3756
 4188SOL     OW14004   2.203   4.087   0.822 -0.1506  0.0604 -0.3555
 4188SOL    HW114005   2.109   4.073   0.833 -0.1931  0.7707  0.3470
 4188SOL    HW214006   2.230   4.127   0.905  0.7764 -0.1639 -0.5446
 4189SOL     OW14007   6.960   4.964   1.726  0.0253 -0.5227  0.1645
 4189SOL    HW114008   6.871   4.959   1.691  0.8086  0.6738 -2.2011
 4189SOL    HW214009   6.976   4.877   1.763 -1.8141 -1.0196 -0.0913
 4190SOL     OW14010   1.714   5.286  12.189 -0.4784  0.0398 -0.4763
 4190SOL    HW114011   1.776   5.220  12.218 -0.7111 -0.0056 -0.0776
 4190SOL    HW214012   1.691   5.334  12.268  1.5007  2.1732 -1.0610
 4191SOL     OW14013   7.973   4.202   0.386  0.1367  0.2855  0.0869
 4191SOL    HW114014   7.890   4.237   0.417  0.5347 -0.2370  1.9026
 4191SOL    HW214015   8.012   4.272   0.334 -1.2927  0.6287 -0.5675
 4192SOL     OW14016   6.637   3.415  12.083  0.3447  0.2345  0.2978
 4192SOL    HW114017   6.641   3.385  12.174 -1.3712  0.5707  0.5210
 4192SOL    HW214018   6.622   3.335  12.032  2.3585 -0.0943  0.1709
 4193SOL     OW14019   1.330   2.862  11.665 -0.0110  0.3063  0.1384
 4193SOL    HW114020   1.252   2.810  11.646  0.1006 -0.9368  2.7162
 4193SOL    HW214021   1.357   2.834  11.753  1.9355  2.4459  0.3104
 4194SOL     OW14022   1.285   3.857  11.421 -0.4192 -0.4450 -0.1937
 4194SOL    HW114023   1.328   3.771  11.411 -0.2639 -0.1574 -2.5828
 4194SOL    HW214024   1.217   3.857  11.355  0.5870  1.8440 -1.3311
 4195SOL     OW14025   1.607   5.127   1.072 -0.0395 -0.2573  0.0100
 4195SOL    HW114026   1.639   5.099   1.157  0.8463  1.6830  0.3785
 4195SOL    HW214027   1.529   5.179   1.091 -0.0892 -0.1767 -0.3986
 4196SOL     OW14028   0.604   2.184   0.350 -0.2681  0.1683 -0.4737
 4196SOL    HW114029   0.557   2.266   0.365 -0.6954  0.0730 -1.1916
 4196SOL    HW214030   0.693   2.210   0.327 -0.3253  0.4185 -0.4096
 4197SOL     OW14031   0.684   4.027   0.007 -0.4312  0.2009  0.0525
 4197SOL    HW114032   0.749   4.032  -0.063  1.0672  1.3186  1.4460
 4197SOL    HW214033   0.648   4.116   0.013 -1.8719 -0.3221 -0.4741
 4198SOL     OW14034   1.119   5.015  11.389 -0.0358 -0.1892 -0.6506
 4198SOL    HW114035   1.087   5.000  11.300  0.3422  0.8905 -0.9796
 4198SOL    HW214036   1.211   5.037  11.378 -0.2194  0.9409 -0.0877
 4199SOL     OW14037   3.214   5.105  10.983  0.2343  0.5867 -0.0579
 4199SOL    HW114038   3.293   5.059  11.013 -1.1227 -2.0154 -0.2616
 4199SOL    HW214039   3.209   5.085  10.890 -0.6582  0.7646 -0.0506
 4200SOL     OW14040   1.474   4.674  11.563 -0.4668  0.2299 -1.0963
 4200SOL    HW114041   1.481   4.718  11.648 -1.2636 -0.9273 -0.4030
 4200SOL    HW214042   1.497   4.742  11.499  3.9301  0.2107  0.1582
 4201SOL     OW14043   7.348   5.277   1.176  0.0438 -0.3387  0.0826
 4201SOL    HW114044   7.305   5.273   1.262  1.1246  0.0605  0.6542
 4201SOL    HW214045   7.376   5.368   1.167  0.3609 -0.4874 -0.4890
 4202SOL     OW14046   1.979   3.600  12.087 -0.0376  0.2224 -0.1803
 4202SOL    HW114047   2.026   3.680  12.109  0.0949 -0.3766  1.8985
 4202SOL    HW214048   2.048   3.533  12.080 -0.2967 -0.0398 -0.2407
 4203SOL     OW14049   2.137   6.364  11.661 -0.2186 -0.0235 -0.2968
 4203SOL    HW114050   2.148   6.349  11.755 -1.5360 -2.0043 -0.4166
 4203SOL    HW214051   2.060   6.419  11.654  0.1740  0.5508 -0.2222
 4204SOL     OW14052   0.808   3.889   0.210 -0.4615  0.2287 -0.0165
 4204SOL    HW114053   0.782   3.961   0.153 -0.6635 -0.5814 -0.9772
 4204SOL    HW214054   0.739   3.823   0.198 -0.4940  0.0215  1.1515
 4205SOL     OW14055   7.593   5.299  11.284 -0.6237  0.1590  0.2042
 4205SOL    HW114056   7.668   5.241  11.298  0.0192  0.7957 -0.4991
 4205SOL    HW214057   7.598   5.363  11.355  0.2521  0.9510 -0.5452
 4206SOL     OW14058   3.145   3.933  11.381  0.2507  0.2030  0.2205
 4206SOL    HW114059   3.101   4.016  11.399 -0.0927 -0.2526  1.6277
 4206SOL    HW214060   3.206   3.922  11.454  0.5849 -0.5849 -0.1684
 4207SOL     OW14061   3.555   5.390  10.722  0.3462  0.1844 -0.0694
 4207SOL    HW114062   3.584   5.306  10.758  2.4309  0.2071 -1.5208
 4207SOL    HW214063   3.481   5.368  10.665 -1.8530 -0.0561  2.6226
 4208SOL     OW14064   6.525   5.198  11.679  0.1428  0.1623  0.1609
 4208SOL    HW114065   6.596   5.262  11.670  2.4934 -2.3033 -0.3688
 4208SOL    HW214066   6.566   5.114  11.658 -2.5532 -1.6593  1.5620
 4209SOL     OW14067   0.349   5.783  11.232  0.3667  0.3663 -0.1816
 4209SOL    HW114068   0.407   5.859  11.230  0.1808  0.5912  1.5340
 4209SOL    HW214069   0.408   5.708  11.238  0.5679  0.2901 -2.3089
 4210SOL     OW14070   1.722   5.049   1.298 -0.2196  0.2460 -0.2299
 4210SOL    HW114071   1.756   5.123   1.347  0.8452  1.0503 -2.0674
 4210SOL    HW214072   1.793   4.984   1.300 -0.6535 -0.2227  0.3056
 4211SOL     OW14073   0.966   5.250   1.227  0.2253  0.2619 -0.8028
 4211SOL    HW114074   1.000   5.276   1.141 -1.1405  0.6756 -1.2472
 4211SOL    HW214075   0.877   5.286   1.229  0.9482  2.1936  1.6730
 4212SOL     OW14076   1.134   5.925  10.530  0.7449 -0.2769  0.5278
 4212SOL    HW114077   1.117   5.891  10.618  0.8023  0.8801  1.0032
 4212SOL    HW214078   1.190   5.859  10.489 -1.9038 -2.4873  0.1624
 4213SOL     OW14079   0.669   5.694  11.361  0.0269  0.2923 -0.3895
 4213SOL    HW114080   0.740   5.645  11.401 -0.8547 -2.0729 -1.5355
 4213SOL    HW214081   0.713   5.754  11.300  1.1165  0.7799  0.8270
 4214SOL     OW14082   7.982   5.127   8.938 -0.2372  0.0839  0.2715
 4214SOL    HW114083   7.900   5.173   8.957 -0.2501  0.8226 -1.4184
 4214SOL    HW214084   7.963   5.076   8.859  0.7146 -0.3319  0.3045
 4215SOL     OW14085   3.259   3.332   1.911  0.4770 -0.8494 -0.0242
 4215SOL    HW114086   3.245   3.370   1.825 -0.8276 -0.3992  0.3741
 4215SOL    HW214087   3.171   3.314   1.945  0.8629  0.6739  1.9584
 4216SOL     OW14088   6.738   4.766  11.157 -0.2530  0.4221 -0.5299
 4216SOL    HW114089   6.732   4.844  11.102  2.1809  1.1278  0.0662
 4216SOL    HW214090   6.799   4.791  11.227  0.1376 -1.8243  0.0174
 4217SOL     OW14091   5.959   3.738  11.823  0.4531  0.4423 -0.1427
 4217SOL    HW114092   6.007   3.811  11.863 -1.4239  1.6581  0.0214
 4217SOL    HW214093   6.013   3.661  11.841  0.6586  1.1895  3.1540
 4218SOL     OW14094   0.540   3.090  12.154 -0.2338  0.1911 -0.3174
 4218SOL    HW114095   0.559   3.147  12.079 -0.1307 -0.2958 -0.6607
 4218SOL    HW214096   0.517   3.006  12.116 -0.7213  0.0951  0.1850
 4219SOL     OW14097   1.315   5.483  11.445  0.0768  0.2536 -1.0305
 4219SOL    HW114098   1.361   5.403  11.471  0.2886  0.3612 -1.0682
 4219SOL    HW214099   1.379   5.553  11.459  0.5979  0.2066 -2.8295
 4220SOL     OW14100   1.554   4.455   1.245 -0.0553  0.3419  0.2772
 4220SOL    HW114101   1.562   4.506   1.325 -0.7759  0.6249  0.1728
 4220SOL    HW214102   1.489   4.501   1.192 -1.4495 -1.1851  0.5824
 4221SOL     OW14103   1.390   5.173  10.698 -0.1276  0.2690  0.7155
 4221SOL    HW114104   1.480   5.156  10.726 -0.2305 -0.8556  0.3970
 4221SOL    HW214105   1.388   5.267  10.680  0.9654  0.3179  0.7925
 4222SOL     OW14106   7.436   5.755  10.770 -0.0290 -0.3965 -0.1159
 4222SOL    HW114107   7.399   5.782  10.686 -0.1796 -0.3830 -0.0466
 4222SOL    HW214108   7.479   5.671  10.752  0.7222  0.0475 -0.4033
 4223SOL     OW14109   7.485   4.836  11.745 -0.7415  0.0023  0.1321
 4223SOL    HW114110   7.571   4.818  11.783 -1.4378 -2.2482  0.8287
 4223SOL    HW214111   7.425   4.835  11.820 -1.8487 -2.3811 -0.6640
 4224SOL     OW14112   1.065   4.802   0.251 -0.4565  0.1422 -0.2438
 4224SOL    HW114113   0.981   4.828   0.289 -0.6220 -1.8101  0.8800
 4224SOL    HW214114   1.121   4.785   0.327  0.8792  1.1372 -0.9716
 4225SOL     OW14115   0.257   3.534  11.074  0.5433 -0.1312 -0.3727
 4225SOL    HW114116   0.250   3.572  10.987 -2.2846  0.9878  0.2175
 4225SOL    HW214117   0.317   3.593  11.121 -0.2430  1.0250 -0.7583
 4226SOL     OW14118   1.212   3.345   0.824  0.0043 -0.6295  0.2595
 4226SOL    HW114119   1.299   3.377   0.849 -0.6207  0.2803  1.4187
 4226SOL    HW214120   1.216   3.335   0.729  0.6127  1.9215 -0.0720
 4227SOL     OW14121   1.894   4.578   1.532 -0.1033 -0.4486 -0.1874
 4227SOL    HW114122   1.949   4.573   1.610  0.3686 -0.7352 -0.5328
 4227SOL    HW214123   1.878   4.487   1.507 -0.3960 -0.3620 -0.3305
 4228SOL     OW14124   7.781   4.944  12.252  0.8062  0.0729  0.6157
 4228SOL    HW114125   7.851   4.891  12.289  2.3084  1.6019  0.1260
 4228SOL    HW214126   7.820   4.985  12.175 -0.5533  1.1535  0.4498
 4229SOL     OW14127   1.668   4.834  11.387 -0.3441  0.8011 -0.0177
 4229SOL    HW114128   1.710   4.817  11.472 -1.6179 -2.0383  0.1552
 4229SOL    HW214129   1.723   4.789  11.324 -1.2715 -0.1141 -0.2034
 4230SOL     OW14130   0.947   4.268  11.978  0.2531  0.1090  0.1041
 4230SOL    HW114131   0.904   4.352  11.968 -0.0419 -0.1200 -0.5833
 4230SOL    HW214132   0.877   4.203  11.972  0.6255 -0.2433 -0.5853
 4231SOL     OW14133   1.659   3.873  11.652  0.1410 -0.1782 -0.1854
 4231SOL    HW114134   1.629   3.796  11.604  2.6386 -1.4631  0.1425
 4231SOL    HW214135   1.743   3.896  11.611  0.1857  1.4584  0.7050
 4232SOL     OW14136   0.101   6.709  10.467  0.1555 -0.0309 -0.4907
 4232SOL    HW114137   0.089   6.684  10.559  0.6761  0.9687 -0.1365
 4232SOL    HW214138   0.120   6.802  10.470  0.8662 -0.1288 -1.5641
 4233SOL     OW14139   2.186   5.349   0.066 -0.0742  0.2115  0.3615
 4233SOL    HW114140   2.223   5.266   0.098  0.6947  0.4271  0.0606
 4233SOL    HW214141   2.114   5.368   0.125  0.7271  0.1174  1.3886
 4234SOL     OW14142   7.233   6.130  11.058 -0.5061  0.0729  0.0331
 4234SOL    HW114143   7.181   6.179  10.994 -0.4661 -1.0758 -0.9063
 4234SOL    HW214144   7.250   6.046  11.016  3.3617  0.8635 -0.3142
 4235SOL     OW14145   1.882   4.000   0.828  0.3692  0.1129  0.0822
 4235SOL    HW114146   1.863   3.940   0.756 -0.7063  0.3743  0.1308
 4235SOL    HW214147   1.826   4.076   0.811  0.8743  0.6145  0.6365
 4236SOL     OW14148   0.349   3.876  10.765  0.0228  0.8271  0.3978
 4236SOL    HW114149   0.380   3.798  10.720 -0.5122  0.9674 -0.2194
 4236SOL    HW214150   0.421   3.939  10.757  1.0151 -0.0193  2.0565
 4237SOL     OW14151   1.772   6.378  10.049  0.3892 -0.2936 -0.6421
 4237SOL    HW114152   1.732   6.447  10.102  0.9131  0.7502 -1.5514
 4237SOL    HW214153   1.739   6.394   9.960  1.9861 -0.0216 -1.2183
 4238SOL     OW14154   1.207   3.031  12.005 -0.0063  0.2271  0.6532
 4238SOL    HW114155   1.210   2.935  11.997 -1.5414  0.3151 -1.9803
 4238SOL    HW214156   1.200   3.062  11.915 -2.9555  2.6575  1.5822
 4239SOL     OW14157   1.771   4.827  12.128  0.0282  0.1998 -0.7559
 4239SOL    HW114158   1.713   4.758  12.096  1.3492 -1.2938 -0.0372
 4239SOL    HW214159   1.734   4.852  12.212  1.0917 -1.7096  0.3514
 4240SOL     OW14160   2.653   4.597   8.267  0.1016  0.7633 -0.0868
 4240SOL    HW114161   2.729   4.541   8.256 -0.5650 -0.4904  1.2373
 4240SOL    HW214162   2.578   4.539   8.254 -0.6145  1.2143  1.6254
 4241SOL     OW14163   0.012   4.113  12.238 -0.3140 -0.6712  0.2757
 4241SOL    HW114164  -0.036   4.032  12.253  0.5165 -0.9182  1.6826
 4241SOL    HW214165  -0.017   4.171  12.308 -0.3815  0.0401 -0.3169
 4242SOL     OW14166   7.527   4.984   0.696 -0.2372  0.0728  0.6578
 4242SOL    HW114167   7.567   5.071   0.685  1.9492 -0.9379  0.1610
 4242SOL    HW214168   7.526   4.947   0.608 -0.6438 -0.6348  0.9517
 4243SOL     OW14169   7.464   5.733  11.576  0.3164  0.5442  0.0123
 4243SOL    HW114170   7.398   5.765  11.638  0.0414  0.5043 -0.2577
 4243SOL    HW214171   7.417   5.728  11.493 -0.8164 -4.1686  0.6610
 4244SOL     OW14172   0.467   5.054   1.824 -0.0156 -0.1192  0.0883
 4244SOL    HW114173   0.456   4.992   1.752 -0.5175  0.5451 -0.4107
 4244SOL    HW214174   0.383   5.053   1.869 -1.0338  2.2489 -1.5728
 4245SOL     OW14175   7.178   5.735   1.968  0.8348 -0.0700  0.4415
 4245SOL    HW114176   7.273   5.725   1.970  0.6868 -1.5812  0.9014
 4245SOL    HW214177   7.158   5.787   2.046  1.2476 -0.0821  0.5576
 4246SOL     OW14178   1.387   4.198   1.147  0.1450  0.4408  0.1576
 4246SOL    HW114179   1.437   4.266   1.102 -0.6722  1.4421  0.7082
 4246SOL    HW214180   1.310   4.185   1.092  0.0985  0.2707  0.2638
 4247SOL     OW14181   1.154   7.967   0.422 -0.1690  0.0000 -0.2316
 4247SOL    HW114182   1.098   7.932   0.353 -1.2497 -0.1423  0.6821
 4247SOL    HW214183   1.104   7.952   0.503  0.3098  1.6534  0.4146
 4248SOL     OW14184   1.398   5.687   2.046 -0.0113 -0.2764  0.1144
 4248SOL    HW114185   1.464   5.724   1.987  0.2492 -0.0363  0.5424
 4248SOL    HW214186   1.314   5.709   2.006  0.1667 -0.5038 -0.3893
 4249SOL     OW14187   2.085   5.610   0.625 -0.6315 -0.4140 -0.0344
 4249SOL    HW114188   2.087   5.516   0.610 -0.1759 -0.1564 -1.8099
 4249SOL    HW214189   2.140   5.647   0.556  1.7761  0.9765  2.4595
 4250SOL     OW14190   0.709   6.212   1.219  0.2117  0.2402  0.6204
 4250SOL    HW114191   0.759   6.288   1.188  0.7605  0.3168  1.6139
 4250SOL    HW214192   0.761   6.179   1.293 -0.7963 -0.1811  1.1636
 4251SOL     OW14193   0.730   6.965   1.631 -0.4647  0.3806 -0.3136
 4251SOL    HW114194   0.732   6.993   1.539 -1.8781 -1.1032 -0.8518
 4251SOL    HW214195   0.767   6.876   1.629  0.5088  0.7440  0.7500
 4252SOL     OW14196   3.304   6.646   1.092  0.2444  0.0653  0.3834
 4252SOL    HW114197   3.395   6.675   1.090  0.2371  0.0777  0.2309
 4252SOL    HW214198   3.272   6.673   1.178  0.3976  0.0238  0.4528
 4253SOL     OW14199   0.814   7.946   1.765  0.3530 -0.5794 -0.0079
 4253SOL    HW114200   0.761   7.891   1.823  1.1202 -1.9502 -0.5585
 4253SOL    HW214201   0.781   7.927   1.677  0.9641 -0.5516 -0.2452
 4254SOL     OW14202   7.943   5.825   0.316  0.0342 -0.0285 -0.1728
 4254SOL    HW114203   7.910   5.915   0.316  1.4548  0.5337  0.6102
 4254SOL    HW214204   7.946   5.801   0.408  1.1214 -0.2904 -0.2618
 4255SOL     OW14205   1.638   6.607   2.369  0.5163 -0.1715 -0.0843
 4255SOL    HW114206   1.705   6.542   2.353  1.3223  0.0959  2.0113
 4255SOL    HW214207   1.565   6.558   2.408 -0.0557 -0.2562 -1.2089
 4256SOL     OW14208   7.987   6.018   1.406  0.1699  0.9373 -0.3271
 4256SOL    HW114209   8.048   6.044   1.337  0.3892 -0.9233 -0.9042
 4256SOL    HW214210   7.976   6.096   1.460 -0.3012  2.5969 -2.6626
 4257SOL     OW14211   1.248   6.370   0.784  0.0708 -0.3139 -0.3874
 4257SOL    HW114212   1.192   6.328   0.849  0.2467  0.6336  0.4059
 4257SOL    HW214213   1.216   6.460   0.779  1.0239  0.0359 -0.4736
 4258SOL     OW14214   0.397   7.927   1.677  0.0695 -0.6796 -0.3408
 4258SOL    HW114215   0.366   7.996   1.736 -0.2146  0.2145 -1.4786
 4258SOL    HW214216   0.371   7.845   1.719 -1.0690 -0.0348  0.2627
 4259SOL     OW14217   1.388   0.754   1.435  0.1832 -0.0220 -0.1835
 4259SOL    HW114218   1.463   0.737   1.378  0.0046 -1.3701 -0.0384
 4259SOL    HW214219   1.314   0.762   1.375  0.1893 -0.2330 -0.2187
 4260SOL     OW14220   0.350   5.445   0.205  0.3831 -0.0776 -0.3453
 4260SOL    HW114221   0.364   5.526   0.156 -2.4021  0.0268 -1.1372
 4260SOL    HW214222   0.353   5.376   0.139 -1.0226 -0.1806 -0.3409
 4261SOL     OW14223   7.961   6.000   1.775 -0.0229 -0.4360 -0.3998
 4261SOL    HW114224   7.893   6.049   1.728  1.1830  2.3247  0.5216
 4261SOL    HW214225   8.004   5.948   1.707  0.1287  1.5981 -1.9596
 4262SOL     OW14226   2.104   7.566   1.183  0.4215 -0.9606 -0.2503
 4262SOL    HW114227   2.185   7.516   1.194  1.7536  1.1973  0.3513
 4262SOL    HW214228   2.048   7.539   1.255  1.6146 -0.7071  0.7974
 4263SOL     OW14229   0.460   5.001   1.533  0.4654  0.4417 -0.3816
 4263SOL    HW114230   0.375   5.043   1.521  0.7429  1.2610  0.3844
 4263SOL    HW214231   0.448   4.912   1.501 -0.4367  0.8006 -1.0779
 4264SOL     OW14232   2.744   5.870   1.356  0.4219 -0.2013 -0.1432
 4264SOL    HW114233   2.745   5.799   1.419  2.3731 -0.3094 -0.2299
 4264SOL    HW214234   2.686   5.840   1.285  0.0925 -1.0661  0.4835
 4265SOL     OW14235   6.409   6.781   1.993  0.0645 -0.3573  0.3582
 4265SOL    HW114236   6.423   6.706   2.051 -1.2505 -0.6155  0.3834
 4265SOL    HW214237   6.351   6.839   2.044 -2.2109 -1.1822 -1.1101
 4266SOL     OW14238   1.696   6.921  11.438 -0.1645  0.5554  0.3604
 4266SOL    HW114239   1.732   6.995  11.388  0.5912  0.3755  0.6171
 4266SOL    HW214240   1.618   6.895  11.390 -0.3549  1.4238  0.1806
 4267SOL     OW14241   1.334   7.903  11.629  0.2976  0.7681  0.4533
 4267SOL    HW114242   1.403   7.870  11.571  0.1742  1.2457  0.0218
 4267SOL    HW214243   1.381   7.948  11.699  0.4953 -0.9549  1.4726
 4268SOL     OW14244   0.657   5.189  12.413  0.2419  0.0933  0.0796
 4268SOL    HW114245   0.564   5.185  12.390  0.4389  1.0301 -0.9715
 4268SOL    HW214246   0.689   5.267  12.367  1.2430  0.5725  1.5240
 4269SOL     OW14247   2.274   5.915   0.179  0.2983 -0.3593  0.0373
 4269SOL    HW114248   2.244   5.951   0.263  0.4483 -0.7518  0.2594
 4269SOL    HW214249   2.365   5.942   0.173  0.2395 -0.1861 -0.0796
 4270SOL     OW14250   7.403   6.554   1.924 -0.6057  0.4981 -0.0780
 4270SOL    HW114251   7.310   6.535   1.922 -0.6639  0.7536  0.2134
 4270SOL    HW214252   7.411   6.634   1.976 -0.3477  1.1563 -1.0938
 4271SOL     OW14253   1.225   5.532   0.235  0.0494 -0.0922 -0.1739
 4271SOL    HW114254   1.143   5.541   0.283  0.3052 -1.4610  0.5432
 4271SOL    HW214255   1.292   5.566   0.295  0.0767  0.6995 -0.6257
 4272SOL     OW14256   0.373   5.663   0.035 -0.0397  0.2358  0.5772
 4272SOL    HW114257   0.400   5.643  -0.055 -1.6653  1.0065 -0.1254
 4272SOL    HW214258   0.360   5.757   0.036 -0.9442  0.1252  1.3412
 4273SOL     OW14259   1.110   6.105   2.183 -0.3024  0.0265 -0.1198
 4273SOL    HW114260   1.152   6.033   2.230 -0.2937 -0.5614 -1.0032
 4273SOL    HW214261   1.161   6.115   2.103 -1.2724 -0.0879 -0.7803
 4274SOL     OW14262   0.609   5.621   0.303  0.0734 -0.3860 -0.4823
 4274SOL    HW114263   0.565   5.677   0.366 -0.1743  0.2372 -1.1986
 4274SOL    HW214264   0.582   5.532   0.327  1.0914 -0.2965  1.1500
 4275SOL     OW14265   1.243   6.383  12.120 -0.3968 -0.1319 -0.5884
 4275SOL    HW114266   1.153   6.376  12.089  0.0694 -0.8131 -1.8515
 4275SOL    HW214267   1.296   6.387  12.040  0.8966 -2.3330  0.0761
 4276SOL     OW14268   2.072   7.264   1.261 -0.6595 -0.0726  0.2418
 4276SOL    HW114269   2.052   7.173   1.239  0.6371 -0.4671  0.5492
 4276SOL    HW214270   2.166   7.273   1.241 -0.6558  1.0462  0.6811
 4277SOL     OW14271   0.336   7.190   1.680 -0.2219 -0.0137  0.0729
 4277SOL    HW114272   0.328   7.095   1.684 -0.8337  0.0708  1.4971
 4277SOL    HW214273   0.387   7.213   1.758 -0.9697  0.8976  0.3062
 4278SOL     OW14274   2.286   7.974   1.565 -0.3227  0.4664  0.0526
 4278SOL    HW114275   2.258   8.048   1.512  1.4292  0.4783 -0.9216
 4278SOL    HW214276   2.280   7.899   1.506  1.6021  0.4745 -0.2238
 4279SOL     OW14277   1.533   6.816   0.234  0.2441  0.0735  0.2894
 4279SOL    HW114278   1.478   6.760   0.288  0.0461 -0.3799 -0.3714
 4279SOL    HW214279   1.528   6.778   0.146  0.0050  1.1889 -0.2016
 4280SOL     OW14280   2.288   5.294   0.461 -0.2356  0.5024  0.1114
 4280SOL    HW114281   2.346   5.217   0.459  0.6118  1.0594  1.6887
 4280SOL    HW214282   2.312   5.344   0.383  1.0558  0.4556  0.4588
 4281SOL     OW14283   1.886   6.903   0.287 -0.1391  0.1288 -0.5838
 4281SOL    HW114284   1.969   6.937   0.319 -0.0807 -0.9456  0.5001
 4281SOL    HW214285   1.821   6.935   0.349 -0.2613 -0.5947 -0.3282
 4282SOL     OW14286   1.333   6.437   1.672 -0.1915  0.1580 -0.0898
 4282SOL    HW114287   1.360   6.415   1.583  0.2150 -1.7833  0.4776
 4282SOL    HW214288   1.369   6.525   1.687 -0.2956  0.5320 -1.8191
 4283SOL     OW14289   2.666   5.498   2.637  0.2907  0.4856 -0.5334
 4283SOL    HW114290   2.754   5.529   2.616  0.1409 -0.1475 -2.3692
 4283SOL    HW214291   2.636   5.554   2.708  3.4624 -1.5088  2.7129
 4284SOL     OW14292   2.687   6.753   2.552 -0.3362 -0.4878  0.4320
 4284SOL    HW114293   2.668   6.836   2.507  1.4812  0.1422  0.7486
 4284SOL    HW214294   2.774   6.765   2.588  0.3536 -2.8823 -0.2891
 4285SOL     OW14295   0.783   6.070   0.853  0.2774  0.1635 -0.1279
 4285SOL    HW114296   0.831   6.149   0.875  0.0083  0.6543 -1.2760
 4285SOL    HW214297   0.693   6.089   0.878  0.3939 -0.2136  0.6374
 4286SOL     OW14298   2.124   6.238   0.973 -0.4030  0.7811 -0.8433
 4286SOL    HW114299   2.087   6.261   0.888 -1.5556  0.7337 -0.3735
 4286SOL    HW214300   2.073   6.288   1.036  0.3834  0.7546 -0.1643
 4287SOL     OW14301   0.546   7.346   2.296  0.6160  0.0089 -0.0293
 4287SOL    HW114302   0.526   7.257   2.267 -0.5479  0.0736  0.5318
 4287SOL    HW214303   0.577   7.390   2.217 -1.3069 -0.1556 -0.9279
 4288SOL     OW14304   1.711   6.476   1.576  0.0663  0.1329 -0.0734
 4288SOL    HW114305   1.782   6.448   1.519  0.4276  0.1183  0.3792
 4288SOL    HW214306   1.644   6.509   1.516  0.3001 -0.1994 -0.5220
 4289SOL     OW14307   0.568   4.238   0.316 -0.3266  0.0584 -0.3681
 4289SOL    HW114308   0.554   4.248   0.222  0.4367 -0.1789 -0.5200
 4289SOL    HW214309   0.493   4.187   0.347 -0.2723 -0.3969 -0.9689
 4290SOL     OW14310   7.365   5.787   3.524  0.3918  0.0059  0.1799
 4290SOL    HW114311   7.413   5.711   3.491  0.1600 -0.8705  1.7566
 4290SOL    HW214312   7.401   5.801   3.612 -1.1827  0.2691  0.8006
 4291SOL     OW14313   1.477   6.048  11.889  0.0334 -0.4150  0.6066
 4291SOL    HW114314   1.443   5.959  11.902  1.6935 -1.1328  0.2340
 4291SOL    HW214315   1.423   6.102  11.947 -1.0660 -1.6282  0.7815
 4292SOL     OW14316   7.723   6.406   1.541  0.3131 -0.7197 -0.4319
 4292SOL    HW114317   7.737   6.482   1.485  0.4785  1.0822  1.8934
 4292SOL    HW214318   7.648   6.430   1.595  1.4999 -1.3989  1.6244
 4293SOL     OW14319   0.709   7.126   0.848 -0.2811 -0.3354 -0.2433
 4293SOL    HW114320   0.645   7.057   0.866 -0.3974  0.1365  1.2461
 4293SOL    HW214321   0.737   7.157   0.934 -0.5923  1.8211 -0.8532
 4294SOL     OW14322   0.996   0.431   1.363 -0.0891 -0.2649  0.5937
 4294SOL    HW114323   0.983   0.415   1.269 -1.2238 -2.6853  1.0773
 4294SOL    HW214324   1.089   0.410   1.378  0.1012  0.1484  0.0315
 4295SOL     OW14325   0.499   7.039   0.299 -0.1380 -0.6604 -0.4257
 4295SOL    HW114326   0.589   7.055   0.327 -0.7811  0.3295  1.1792
 4295SOL    HW214327   0.465   7.126   0.276 -1.6572 -0.4941  2.1360
 4296SOL     OW14328   1.300   5.960   2.730 -0.3667  0.1280  0.0214
 4296SOL    HW114329   1.235   5.933   2.794  0.1758 -1.6650 -0.1137
 4296SOL    HW214330   1.249   5.997   2.658 -1.0793  0.7249  0.8251
 4297SOL     OW14331   1.188   5.976   1.120  0.0535  0.2077  0.0965
 4297SOL    HW114332   1.198   5.998   1.027  0.4895 -1.1870 -0.2047
 4297SOL    HW214333   1.258   6.025   1.163  2.2103 -1.8829 -0.8003
 4298SOL     OW14334   1.935   6.160   0.672 -0.2765  0.2503  0.5221
 4298SOL    HW114335   1.866   6.121   0.619 -1.0731  0.4638  1.3914
 4298SOL    HW214336   1.985   6.213   0.609 -0.9074  0.1125 -0.1121
 4299SOL     OW14337   1.080   6.677   2.282 -0.7876  0.0805 -0.2989
 4299SOL    HW114338   0.998   6.633   2.308  0.0391 -1.4267 -0.1566
 4299SOL    HW214339   1.124   6.695   2.365 -0.5544  0.0745 -0.4229
 4300SOL     OW14340   1.448   7.469   0.114  0.2542 -0.2141 -0.3533
 4300SOL    HW114341   1.397   7.414   0.055  2.5205 -1.3963 -1.3497
 4300SOL    HW214342   1.468   7.412   0.188  1.9996 -0.5875 -1.0551
 4301SOL     OW14343   6.224   5.700   1.425 -0.1949  0.4459 -0.1390
 4301SOL    HW114344   6.289   5.630   1.437  0.7544  1.6185  2.3908
 4301SOL    HW214345   6.269   5.779   1.456 -1.9301  1.8290 -0.9863
 4302SOL     OW14346   1.510   6.174   1.792 -0.4174 -0.0163 -0.3291
 4302SOL    HW114347   1.594   6.196   1.833 -1.4565  0.3295  1.7252
 4302SOL    HW214348   1.529   6.172   1.698  1.7982  0.4064  0.0616
 4303SOL     OW14349   0.535   6.780  11.965  0.4991 -0.4973 -0.1277
 4303SOL    HW114350   0.565   6.835  11.893  1.9516 -1.4066 -0.2480
 4303SOL    HW214351   0.614   6.740  12.001 -0.2527 -0.6184  1.5349
 4304SOL     OW14352   2.131   5.499   2.591  0.3506 -0.1516  0.1153
 4304SOL    HW114353   2.067   5.536   2.531  1.2250  0.0813 -0.6986
 4304SOL    HW214354   2.197   5.567   2.601  1.3448 -1.0034 -0.4188
 4305SOL     OW14355   1.369   6.737   1.656 -0.3316 -0.1632  0.0192
 4305SOL    HW114356   1.347   6.819   1.701 -1.1885  0.9964 -2.3493
 4305SOL    HW214357   1.444   6.760   1.601  0.1213 -1.2870  0.1409
 4306SOL     OW14358   0.390   7.162   3.190 -0.3990 -0.3954 -0.0457
 4306SOL    HW114359   0.327   7.226   3.158  1.9923  3.0488  1.5660
 4306SOL    HW214360   0.359   7.137   3.277  0.1057  0.8387  0.5022
 4307SOL     OW14361   0.444   5.483   1.603  0.1556  0.2347  0.5520
 4307SOL    HW114362   0.480   5.484   1.691  0.3245 -0.1581  0.4897
 4307SOL    HW214363   0.499   5.545   1.554  1.7610 -1.4783  0.0728
 4308SOL     OW14364   1.784   5.291   1.442 -0.0623  0.1750  0.0105
 4308SOL    HW114365   1.695   5.322   1.424 -0.4145  0.1238  1.5377
 4308SOL    HW214366   1.839   5.367   1.424 -0.5119  0.5042 -0.0011
 4309SOL     OW14367   0.051   5.230   0.544 -0.7226  0.4222  0.2667
 4309SOL    HW114368   0.002   5.164   0.496  1.9994 -0.8176 -1.0209
 4309SOL    HW214369   0.121   5.256   0.484  0.4583  1.7849  2.1267
 4310SOL     OW14370   1.883   4.488   3.947 -0.4936  0.2020  0.0926
 4310SOL    HW114371   1.881   4.577   3.982 -0.9574 -0.2423  1.2218
 4310SOL    HW214372   1.802   4.479   3.897  0.3352  0.9558 -1.4801
 4311SOL     OW14373   7.586   5.286  11.904  0.1269 -0.0324 -0.5243
 4311SOL    HW114374   7.657   5.248  11.956 -1.1435 -0.7009  0.8107
 4311SOL    HW214375   7.625   5.363  11.863  1.1023  0.7780  1.7639
 4312SOL     OW14376   7.653   6.484   0.256  0.2883 -0.4398  0.2972
 4312SOL    HW114377   7.608   6.564   0.284  1.0400  0.2283 -0.3628
 4312SOL    HW214378   7.657   6.430   0.335 -1.5927 -0.4968  0.3970
 4313SOL     OW14379   0.287   6.151   0.455 -0.1802 -0.2727  0.0272
 4313SOL    HW114380   0.319   6.068   0.421 -1.2024 -1.1069  1.0318
 4313SOL    HW214381   0.193   6.150   0.437 -0.2986  0.4123  0.5491
 4314SOL     OW14382   0.744   5.853   1.069  0.3598 -0.0970  0.5361
 4314SOL    HW114383   0.767   5.836   0.977 -0.3412  0.7040  0.1924
 4314SOL    HW214384   0.656   5.892   1.064  1.7771  3.5985  1.1853
 4315SOL     OW14385   1.397   5.621  11.739  0.0481 -0.0162  0.3919
 4315SOL    HW114386   1.437   5.630  11.826  0.6731 -1.3115  0.2627
 4315SOL    HW214387   1.355   5.535  11.741  2.2179 -1.2115 -1.3886
 4316SOL     OW14388   7.964   7.030   0.733  0.9119  0.5461 -0.1843
 4316SOL    HW114389   8.052   7.058   0.758  0.7662 -0.7954  2.0912
 4316SOL    HW214390   7.905   7.086   0.784  0.5330 -0.4273  0.4776
 4317SOL     OW14391   3.091   6.442   2.580  0.4605 -0.0342  0.0680
 4317SOL    HW114392   3.020   6.396   2.627  2.0978 -1.0680  1.6805
 4317SOL    HW214393   3.129   6.500   2.646  2.0432 -0.5979 -0.3079
 4318SOL     OW14394   0.793   6.282   2.813 -0.0921 -0.2465  0.0047
 4318SOL    HW114395   0.732   6.221   2.855  0.9935 -0.7731  0.8828
 4318SOL    HW214396   0.825   6.337   2.885  1.2565 -0.6876 -0.2272
 4319SOL     OW14397   0.899   5.824   1.999 -0.2091 -0.1633 -0.4372
 4319SOL    HW114398   0.882   5.730   2.005  0.2391 -0.2034  0.3623
 4319SOL    HW214399   0.900   5.854   2.090  4.1015 -0.2398 -0.2616
 4320SOL     OW14400   6.679   7.502   1.958 -0.1530 -0.3003 -0.2796
 4320SOL    HW114401   6.713   7.455   1.882  0.7708  2.4979 -1.7660
 4320SOL    HW214402   6.585   7.510   1.941 -0.1958 -0.9908 -0.3660
 4321SOL     OW14403   0.797   6.459  12.235  0.2413 -0.1328  0.0809
 4321SOL    HW114404   0.787   6.522  12.306  0.7346 -2.0154  1.9190
 4321SOL    HW214405   0.875   6.488  12.187  0.1735  0.9142  0.5833
 4322SOL     OW14406   2.281   5.235  12.084  0.0644 -0.2117 -0.7171
 4322SOL    HW114407   2.343   5.302  12.057  0.2569  0.3081  0.9159
 4322SOL    HW214408   2.327   5.183  12.149 -1.2008  0.2637  0.6300
 4323SOL     OW14409   7.024   6.211   0.557  0.6633  0.3518  0.6909
 4323SOL    HW114410   6.987   6.293   0.589 -1.0574 -0.0243 -0.2292
 4323SOL    HW214411   6.992   6.204   0.467  0.7811 -1.3181  0.7513
 4324SOL     OW14412   6.594   6.104   1.627  0.3924  0.4607 -0.0930
 4324SOL    HW114413   6.572   6.197   1.626 -0.1119  0.3574  0.8357
 4324SOL    HW214414   6.622   6.086   1.716 -0.2138 -0.4366 -0.0697
 4325SOL     OW14415   2.603   6.176  11.032  0.4564 -0.1595 -0.0826
 4325SOL    HW114416   2.538   6.170  11.101  0.3405  0.4999 -0.1242
 4325SOL    HW214417   2.657   6.097  11.041  0.8516  0.2340  1.1660
 4326SOL     OW14418   0.715   6.558  11.991  0.6559 -0.1374  0.1964
 4326SOL    HW114419   0.676   6.514  12.066 -2.1245 -0.1165 -1.1344
 4326SOL    HW214420   0.799   6.512  11.978  0.7253 -0.8360  2.6041
 4327SOL     OW14421   1.707   6.352   1.819 -0.3064 -0.0611  0.4525
 4327SOL    HW114422   1.790   6.305   1.819 -0.4319 -0.3818 -1.7715
 4327SOL    HW214423   1.709   6.405   1.740 -1.8725  0.5837  0.8014
 4328SOL     OW14424   2.650   5.836   1.914 -0.5855 -0.7232 -0.0033
 4328SOL    HW114425   2.707   5.868   1.984 -2.1235 -1.8671  1.8711
 4328SOL    HW214426   2.596   5.912   1.891  1.9432  0.5543 -2.2402
 4329SOL     OW14427   2.095   0.386  12.280 -0.2699 -0.1120 -0.4401
 4329SOL    HW114428   2.106   0.471  12.236  1.0483 -0.9810 -1.8649
 4329SOL    HW214429   2.174   0.337  12.258 -0.7219 -1.5059  0.8907
 4330SOL     OW14430   0.080   6.884   0.238  0.2616  0.2037  0.9565
 4330SOL    HW114431   0.114   6.936   0.166 -2.9561  1.4483  0.1312
 4330SOL    HW214432   0.098   6.793   0.213  0.5455  0.6841 -0.6646
 4331SOL     OW14433   1.174   6.349   1.399 -0.1127  0.3255  0.3337
 4331SOL    HW114434   1.269   6.349   1.411  0.4444  0.1029 -2.9991
 4331SOL    HW214435   1.158   6.422   1.339 -2.0825  0.4638  0.9750
 4332SOL     OW14436   1.467   5.520   0.824  0.0811  0.0071  0.3757
 4332SOL    HW114437   1.413   5.455   0.780  1.0987  0.0472 -0.9705
 4332SOL    HW214438   1.464   5.495   0.917 -0.8557 -0.9744  0.1017
 4333SOL     OW14439   2.323   5.487   1.098 -0.0411  0.1384  0.2430
 4333SOL    HW114440   2.341   5.417   1.160  1.6118  1.6516  1.5990
 4333SOL    HW214441   2.260   5.544   1.144  0.4651  0.7702  0.1711
 4334SOL     OW14442   2.374   6.353   2.488  0.0254 -0.6444 -0.2983
 4334SOL    HW114443   2.403   6.359   2.580  0.5625  0.7145 -0.5245
 4334SOL    HW214444   2.427   6.283   2.451  1.3807  0.2320 -0.0959
 4335SOL     OW14445   0.915   6.840   1.195  0.1049 -0.1763  0.2072
 4335SOL    HW114446   0.971   6.907   1.233 -0.2474  0.3461 -0.1900
 4335SOL    HW214447   0.973   6.764   1.183  0.3686 -0.1387  1.1771
 4336SOL     OW14448   2.121   7.133   3.452 -0.6580 -0.4622  1.3942
 4336SOL    HW114449   2.047   7.186   3.480  0.0963  2.2391 -1.2535
 4336SOL    HW214450   2.088   7.079   3.380 -0.1960  0.5689  0.3718
 4337SOL     OW14451   0.748   6.033   1.920 -0.0233  0.6335  0.0025
 4337SOL    HW114452   0.755   6.100   1.988  1.7460 -0.1698  0.6898
 4337SOL    HW214453   0.785   5.954   1.961  0.6858  0.0058 -1.7286
 4338SOL     OW14454   0.784   7.104   0.371  0.5033  0.0928  0.2388
 4338SOL    HW114455   0.804   7.178   0.429 -1.6067  0.3112  0.7537
 4338SOL    HW214456   0.822   7.028   0.415  0.0111  0.4381  1.2889
 4339SOL     OW14457   1.728   6.360   0.706  0.2861  0.0390 -0.4777
 4339SOL    HW114458   1.766   6.378   0.620  1.7092 -1.2128 -0.1695
 4339SOL    HW214459   1.804   6.337   0.761 -0.6975 -0.2341  0.8223
 4340SOL     OW14460   1.294   5.209  12.109  0.0472 -0.5709  0.2456
 4340SOL    HW114461   1.203   5.224  12.085 -0.0491 -1.0772  0.2805
 4340SOL    HW214462   1.295   5.120  12.145  0.8143 -1.1384 -1.1090
 4341SOL     OW14463   0.594   6.387  11.290  0.2917 -0.0613 -0.6399
 4341SOL    HW114464   0.528   6.408  11.356  0.0833 -1.5820 -0.3347
 4341SOL    HW214465   0.561   6.428  11.210 -0.4056  0.2208 -0.2207
 4342SOL     OW14466   7.371   6.794   0.167  0.1385  0.2600 -0.0378
 4342SOL    HW114467   7.319   6.751   0.100 -1.1808 -0.1577  1.1819
 4342SOL    HW214468   7.401   6.723   0.224  0.4631  0.6704  0.3149
 4343SOL     OW14469   3.009   7.436   1.910 -0.4885  0.2097  0.1882
 4343SOL    HW114470   3.046   7.361   1.956 -1.9999 -0.6027  0.1464
 4343SOL    HW214471   3.016   7.509   1.972 -1.7590 -0.6779  1.4360
 4344SOL     OW14472   7.353   7.650   1.168  0.2562 -0.2736  0.3902
 4344SOL    HW114473   7.331   7.681   1.256 -0.8686  0.5489 -0.1499
 4344SOL    HW214474   7.360   7.730   1.115  3.6257 -0.5462  0.2506
 4345SOL     OW14475   7.939   7.114   2.276  0.2950 -0.6164 -0.4416
 4345SOL    HW114476   7.974   7.028   2.300  0.8874 -0.4790 -0.7995
 4345SOL    HW214477   7.922   7.108   2.183  0.7830 -0.2008 -0.5659
 4346SOL     OW14478   7.309   6.868   0.889  0.3626 -0.3671 -0.4478
 4346SOL    HW114479   7.402   6.888   0.882  0.6647 -0.5105  2.1668
 4346SOL    HW214480   7.267   6.954   0.896  0.6150 -0.3260  0.8972
 4347SOL     OW14481   0.093   5.482  12.408 -0.7988 -0.4307 -0.3055
 4347SOL    HW114482   0.082   5.528  12.491  0.3875 -1.3024  0.3607
 4347SOL    HW214483   0.141   5.402  12.430  2.3846  0.7651 -2.2099
 4348SOL     OW14484   3.115   6.522   1.931  0.0255 -0.4709  0.2106
 4348SOL    HW114485   3.056   6.551   2.000  0.1494 -0.9150  0.5078
 4348SOL    HW214486   3.186   6.586   1.931  0.7948 -1.2757  1.5214
 4349SOL     OW14487   7.828   5.209  12.011 -0.4741  0.2246  0.2117
 4349SOL    HW114488   7.892   5.139  12.025 -1.1625 -0.3532  0.4745
 4349SOL    HW214489   7.870   5.287  12.049 -0.9478 -0.6487  2.7019
 4350SOL     OW14490   0.636   7.035   1.863  0.3941  0.4951 -0.2692
 4350SOL    HW114491   0.661   7.008   1.775  1.8214 -0.9851  0.5435
 4350SOL    HW214492   0.567   7.100   1.849  0.3949  0.1059 -2.4544
 4351SOL     OW14493   0.681   7.513   3.657 -0.2909  0.3697 -0.8868
 4351SOL    HW114494   0.696   7.608   3.665 -0.2880  0.3432 -0.5476
 4351SOL    HW214495   0.605   7.496   3.712 -2.2840  0.6598 -3.3760
 4352SOL     OW14496   1.665   6.206   2.637  0.3132 -0.2587 -0.9069
 4352SOL    HW114497   1.597   6.273   2.637 -0.7440 -1.3123 -0.3199
 4352SOL    HW214498   1.731   6.239   2.575 -0.1783  1.3088 -0.6366
 4353SOL     OW14499   0.810   5.608   3.276  0.0327 -0.5871 -0.1124
 4353SOL    HW114500   0.864   5.532   3.257  1.1394  0.0237  0.4767
 4353SOL    HW214501   0.862   5.682   3.244 -0.8698 -0.0516 -0.3584
 4354SOL     OW14502   0.759   6.133   3.244 -0.4350  0.4606 -0.3701
 4354SOL    HW114503   0.710   6.208   3.277 -1.4402 -0.8295  1.2138
 4354SOL    HW214504   0.693   6.076   3.206  0.0562 -0.4702  0.1445
 4355SOL     OW14505   0.506   5.550  12.328 -0.4076 -0.0099  0.0102
 4355SOL    HW114506   0.587   5.596  12.350 -0.2963 -1.4940  3.2282
 4355SOL    HW214507   0.535   5.473  12.279  0.1532 -0.4616  1.0249
 4356SOL     OW14508   1.188   6.283   0.526  0.2627 -0.1034 -0.1389
 4356SOL    HW114509   1.197   6.310   0.618 -0.6736 -0.5583  0.0926
 4356SOL    HW214510   1.175   6.365   0.479  0.3482  0.0989  0.1843
 4357SOL     OW14511   2.659   5.751   0.649  0.4998  0.0976  0.1093
 4357SOL    HW114512   2.703   5.666   0.641 -0.5484 -0.4859  0.3516
 4357SOL    HW214513   2.620   5.765   0.563 -0.7901 -0.5125  0.5747
 4358SOL     OW14514   0.659   4.609  12.338  0.3272  0.2716  0.5358
 4358SOL    HW114515   0.608   4.549  12.392  1.1765 -0.6720  0.3272
 4358SOL    HW214516   0.742   4.564  12.324  1.5960  2.1236  1.6025
 4359SOL     OW14517   1.456   7.007  12.244 -0.7097 -0.5533  0.4301
 4359SOL    HW114518   1.378   6.959  12.273 -1.0776 -0.4633 -0.3868
 4359SOL    HW214519   1.518   6.999  12.317 -1.5962 -0.3565  1.2216
 4360SOL     OW14520   7.133   6.653   1.495 -0.2829  0.8259 -0.4644
 4360SOL    HW114521   7.078   6.719   1.538 -0.2774  0.8236 -0.4538
 4360SOL    HW214522   7.103   6.653   1.404 -0.6444  0.4674 -0.3466
 4361SOL     OW14523   0.302   5.191   2.070  0.3254  0.2864  0.1764
 4361SOL    HW114524   0.384   5.240   2.065  1.7262 -2.0132 -1.8809
 4361SOL    HW214525   0.324   5.115   2.125 -0.5055 -0.2077 -0.1585
 4362SOL     OW14526   0.476   6.586   0.895 -0.5618  0.2076 -0.2002
 4362SOL    HW114527   0.446   6.605   0.806  0.2223 -1.6523 -0.8999
 4362SOL    HW214528   0.557   6.537   0.884 -0.1852  0.3507  1.5661
 4363SOL     OW14529   1.229   4.295  12.487 -0.2601  0.1748  0.5891
 4363SOL    HW114530   1.140   4.265  12.507 -0.9930  0.6687 -1.6773
 4363SOL    HW214531   1.263   4.326  12.571 -1.6881 -1.3323  1.7890
 4364SOL     OW14532   6.497   6.025   0.255  0.1299  0.1999 -0.5886
 4364SOL    HW114533   6.479   5.939   0.217  1.2715 -0.0690 -0.5444
 4364SOL    HW214534   6.425   6.080   0.224 -0.5518 -0.7370 -0.7096
 4365SOL     OW14535   2.574   0.225   0.370  0.2577 -0.2928 -0.5430
 4365SOL    HW114536   2.543   0.179   0.293  1.0243 -0.1699 -0.9326
 4365SOL    HW214537   2.663   0.253   0.348 -0.5245  2.3378 -0.7730
 4366SOL     OW14538   3.094   6.466   1.360  0.3591  0.1735  0.6178
 4366SOL    HW114539   3.073   6.544   1.308 -0.4597 -0.6424 -0.3189
 4366SOL    HW214540   3.177   6.488   1.403  0.2289  1.4926  0.2556
 4367SOL     OW14541   1.275   6.956   0.218  0.2302  0.4043 -0.4119
 4367SOL    HW114542   1.366   6.940   0.196  0.2471  1.1146 -0.8725
 4367SOL    HW214543   1.262   6.910   0.301  0.8210 -0.2515 -0.6777
 4368SOL     OW14544   1.127   4.978   0.040  0.0493 -0.1402 -0.5510
 4368SOL    HW114545   1.115   4.907  -0.024 -0.0744 -1.4296  0.8519
 4368SOL    HW214546   1.098   4.941   0.123  0.4639  1.4057  0.3268
 4369SOL     OW14547   2.526   5.735   1.185 -0.6891  0.3011  0.6586
 4369SOL    HW114548   2.466   5.666   1.157 -1.2583  1.1327 -0.2498
 4369SOL    HW214549   2.472   5.794   1.238 -0.8791  1.4112 -0.7096
 4370SOL     OW14550   2.060   7.048   1.495 -0.0333 -0.5765 -0.4878
 4370SOL    HW114551   2.054   7.036   1.400  0.9073 -0.7019 -0.5358
 4370SOL    HW214552   2.020   7.133   1.510 -0.4838 -0.6984 -0.9580
 4371SOL     OW14553   7.862   0.623   3.877 -0.0558  0.2029  0.1681
 4371SOL    HW114554   7.823   0.697   3.830 -0.8851  0.3161  0.9949
 4371SOL    HW214555   7.843   0.640   3.969  0.4393 -0.6428  0.4429
 4372SOL     OW14556   6.759   7.440   2.227  0.2596  0.0499  0.0280
 4372SOL    HW114557   6.757   7.424   2.132  0.7902 -1.4129  0.2448
 4372SOL    HW214558   6.692   7.507   2.241 -1.3544 -1.2370 -1.1346
 4373SOL     OW14559   2.519   5.595   1.948  1.1428  0.0558 -0.1441
 4373SOL    HW114560   2.596   5.541   1.931  1.1295 -0.1081  0.2980
 4373SOL    HW214561   2.553   5.684   1.958  1.2360  0.0345 -0.2698
 4374SOL     OW14562   3.438   6.480   1.768 -0.5594  0.0326 -0.2023
 4374SOL    HW114563   3.533   6.489   1.772 -0.6738  1.1268  0.5879
 4374SOL    HW214564   3.423   6.387   1.749  0.6604 -0.1245 -0.4630
 4375SOL     OW14565   1.153   6.707   1.496  0.2608 -0.0356 -0.9694
 4375SOL    HW114566   1.237   6.734   1.533  0.0499  0.4634 -0.8510
 4375SOL    HW214567   1.177   6.659   1.416  0.6545  0.1411 -0.9617
 4376SOL     OW14568   7.497   7.870   0.359 -0.0346 -0.0962 -0.2921
 4376SOL    HW114569   7.422   7.814   0.376 -0.4327  0.3735 -0.4894
 4376SOL    HW214570   7.568   7.809   0.337 -0.1893 -0.5685  0.4986
 4377SOL     OW14571   1.337   6.698   0.386  0.1935 -0.1149  0.3381
 4377SOL    HW114572   1.280   6.757   0.436 -2.2602 -0.5665 -1.7514
 4377SOL    HW214573   1.356   6.626   0.446 -0.6228  0.5334  1.4042
 4378SOL     OW14574   0.712   5.063  11.779 -0.8055  0.1059  0.2858
 4378SOL    HW114575   0.730   5.017  11.698 -1.8292 -1.5052  0.9292
 4378SOL    HW214576   0.696   5.154  11.753  1.2001  0.1506 -1.0145
 4379SOL     OW14577   7.441   5.686   1.955  0.3983  0.3412 -0.2261
 4379SOL    HW114578   7.525   5.710   1.916  0.6331  1.3572  0.8508
 4379SOL    HW214579   7.461   5.669   2.047 -0.7111  1.4841  0.2537
 4380SOL     OW14580   0.060   6.477   2.071 -0.0857  0.9979 -0.0093
 4380SOL    HW114581   0.005   6.488   1.994 -1.2860 -0.2270  0.6117
 4380SOL    HW214582   0.006   6.511   2.143 -0.1537 -0.3827  0.6342
 4381SOL     OW14583   2.223   7.225   1.960  0.3685 -0.4131  0.3441
 4381SOL    HW114584   2.294   7.262   2.012 -0.8868 -0.1603  1.9664
 4381SOL    HW214585   2.154   7.205   2.024 -0.8687 -1.0218 -1.1092
 4382SOL     OW14586   2.696   4.484  12.496  0.1928 -0.2930  0.3489
 4382SOL    HW114587   2.695   4.428  12.574  0.7194  0.3479  0.8298
 4382SOL    HW214588   2.627   4.548  12.511  0.6559  0.1688  0.5556
 4383SOL     OW14589   3.302   5.463   2.334 -0.9107  0.0684  0.0621
 4383SOL    HW114590   3.375   5.423   2.381 -1.1816  0.5024  0.8711
 4383SOL    HW214591   3.236   5.395   2.330  0.0223 -0.7943 -1.8886
 4384SOL     OW14592   1.423   0.410   4.041 -0.5128  0.0673  0.1277
 4384SOL    HW114593   1.335   0.420   4.003 -0.7434 -0.8914  0.3773
 4384SOL    HW214594   1.448   0.499   4.067 -0.8214  0.5716 -1.2008
 4385SOL     OW14595   6.933   4.983   1.361  0.4583 -0.1843  0.1543
 4385SOL    HW114596   6.988   4.992   1.439 -1.6918 -0.4467  1.8190
 4385SOL    HW214597   6.947   4.894   1.331  3.0542  0.5924 -1.2698
 4386SOL     OW14598   7.343   6.920   2.863 -0.1960  0.7845  0.1763
 4386SOL    HW114599   7.385   6.842   2.827 -0.7427  1.1496 -1.3035
 4386SOL    HW214600   7.402   6.992   2.840 -1.8211  1.3993 -2.5137
 4387SOL     OW14601   0.771   5.301  11.564 -0.2241  0.2495 -0.0620
 4387SOL    HW114602   0.858   5.302  11.525  0.1300 -2.2360  0.5318
 4387SOL    HW214603   0.712   5.278  11.492  0.0260 -1.1128  0.1442
 4388SOL     OW14604   7.970   7.863   2.938  0.1855 -0.3316 -0.3838
 4388SOL    HW114605   8.026   7.907   2.874 -1.1943 -0.1841 -1.5250
 4388SOL    HW214606   7.997   7.900   3.022  1.3233  0.2326 -0.9701
 4389SOL     OW14607   3.111   5.665   1.374  0.1720 -0.3735 -0.2301
 4389SOL    HW114608   3.102   5.684   1.467 -1.0866 -1.5802 -0.0801
 4389SOL    HW214609   3.206   5.660   1.360  0.3731 -0.7803  1.1192
 4390SOL     OW14610   1.014   6.162  12.348 -0.6162 -0.1499 -0.3668
 4390SOL    HW114611   1.035   6.070  12.333  1.6985  0.1221  0.7515
 4390SOL    HW214612   1.036   6.177  12.440 -0.3435  1.6649 -0.6878
 4391SOL     OW14613   2.074   5.198   1.033 -0.2572  0.2623 -0.2725
 4391SOL    HW114614   2.110   5.258   0.967 -0.6616 -0.0512 -0.7938
 4391SOL    HW214615   2.083   5.111   0.993 -1.2928  0.1505 -0.2909
 4392SOL     OW14616   0.659   6.665  11.251  0.1130  0.5376  0.1203
 4392SOL    HW114617   0.626   6.645  11.164 -0.4762  0.6397  0.3143
 4392SOL    HW214618   0.648   6.584  11.300  1.1782  0.2382 -0.1052
 4393SOL     OW14619   7.566   6.190   0.894 -0.3069  0.2957 -0.5018
 4393SOL    HW114620   7.659   6.186   0.869  0.0741  0.9449  0.7287
 4393SOL    HW214621   7.554   6.114   0.950 -0.1577  0.9505  0.4377
 4394SOL     OW14622   1.026   7.588   0.929  0.1837 -0.2265  0.5926
 4394SOL    HW114623   1.003   7.671   0.971 -1.9674 -1.9674  3.1677
 4394SOL    HW214624   1.027   7.524   1.000 -0.5158 -2.8287 -1.5520
 4395SOL     OW14625   2.203   5.027  11.923 -0.7916  0.6093 -0.2015
 4395SOL    HW114626   2.238   5.091  11.985  1.1173 -0.4368 -0.1375
 4395SOL    HW214627   2.255   5.038  11.844 -1.4779  0.1688 -0.7288
 4396SOL     OW14628   0.677   6.934   2.426  0.0924  0.3821  0.4771
 4396SOL    HW114629   0.614   6.923   2.355 -0.0255 -1.0115  0.7588
 4396SOL    HW214630   0.762   6.918   2.386  0.1522  0.9686  0.3670
 4397SOL     OW14631   0.770   0.859   2.966  0.4373 -0.5970 -0.3923
 4397SOL    HW114632   0.842   0.833   2.908  1.3710 -0.6966  0.7701
 4397SOL    HW214633   0.695   0.808   2.937  1.2469 -1.6787 -0.6307
 4398SOL     OW14634   1.390   6.136   0.228 -0.6465  0.2543  0.7197
 4398SOL    HW114635   1.321   6.092   0.179 -0.5962  1.8470 -0.8483
 4398SOL    HW214636   1.377   6.229   0.211 -0.0446  0.8274  2.9985
 4399SOL     OW14637   0.212   5.147   1.513 -0.0379  0.1716 -0.3522
 4399SOL    HW114638   0.143   5.189   1.564 -1.3175 -0.0046 -1.8400
 4399SOL    HW214639   0.251   5.218   1.462  1.2753  0.3588  0.8449
 4400SOL     OW14640   0.177   6.115   1.210 -0.0901 -0.4724  0.0525
 4400SOL    HW114641   0.212   6.181   1.151  0.4785  0.3117  1.2401
 4400SOL    HW214642   0.254   6.069   1.244 -0.1976  0.7869  2.1303
 4401SOL     OW14643   2.063   0.639   0.917  0.5168 -0.6613 -0.1999
 4401SOL    HW114644   2.043   0.548   0.898 -0.3936 -0.2403 -1.3636
 4401SOL    HW214645   2.132   0.662   0.855  0.4566 -0.4307 -0.1828
 4402SOL     OW14646   2.402   6.849  12.430 -0.4080 -0.1073  0.3571
 4402SOL    HW114647   2.332   6.901  12.390 -0.9252 -0.5662  0.6444
 4402SOL    HW214648   2.361   6.764  12.448  0.7788 -1.1379 -1.3994
 4403SOL     OW14649   1.352   5.646   0.476  0.7713 -0.2239 -0.4744
 4403SOL    HW114650   1.386   5.588   0.544  2.7401  1.4803  0.1025
 4403SOL    HW214651   1.274   5.685   0.516  1.6606  0.4300  0.6942
 4404SOL     OW14652   0.713   5.750   0.808  0.6581  0.1579 -0.1717
 4404SOL    HW114653   0.628   5.727   0.846  0.3834 -2.7618 -2.2278
 4404SOL    HW214654   0.691   5.811   0.737  0.2848 -0.3522 -0.5031
 4405SOL     OW14655   2.771   6.369  11.416  0.2021  0.8141  0.3565
 4405SOL    HW114656   2.783   6.373  11.510  0.6503  0.4211  0.3186
 4405SOL    HW214657   2.691   6.419  11.400 -0.2437  0.3267  1.0181
 4406SOL     OW14658   1.697   6.806   2.168  0.2663 -0.7203 -0.2374
 4406SOL    HW114659   1.654   6.774   2.088 -0.7247 -0.2703  0.0929
 4406SOL    HW214660   1.676   6.741   2.234 -0.4734 -0.1835  0.0754
 4407SOL     OW14661   0.671   7.335  12.008  0.1322  0.4719  0.0845
 4407SOL    HW114662   0.762   7.350  12.035  0.3384 -0.2758 -0.1840
 4407SOL    HW214663   0.621   7.404  12.052  0.9880  1.6667 -0.7336
 4408SOL     OW14664   0.309   6.259   2.309  0.0451  0.0361  0.1826
 4408SOL    HW114665   0.363   6.275   2.232 -0.2877  0.7828  0.1023
 4408SOL    HW214666   0.372   6.233   2.377  0.2245 -1.9700 -0.6732
 4409SOL     OW14667   0.395   5.951   0.302 -0.2287  0.4681  0.3003
 4409SOL    HW114668   0.451   6.012   0.254 -0.3944  0.5809  0.2517
 4409SOL    HW214669   0.330   5.922   0.238 -1.3941  1.7873  0.8502
 4410SOL     OW14670   7.598   6.922   0.312 -0.0795  0.7254 -0.1525
 4410SOL    HW114671   7.521   6.879   0.350  0.9345 -1.6582 -0.6271
 4410SOL    HW214672   7.566   6.962   0.231 -0.6573 -1.2344 -0.9450
 4411SOL     OW14673   0.885   4.060   1.731 -0.1949  0.2014  0.4206
 4411SOL    HW114674   0.976   4.060   1.703 -0.9846 -1.5730 -2.5548
 4411SOL    HW214675   0.890   4.056   1.827  2.9276 -2.8791  0.3458
 4412SOL     OW14676   0.292   7.524   0.098  0.2369 -0.3506 -0.2002
 4412SOL    HW114677   0.303   7.611   0.060  0.9726 -0.1097  0.5290
 4412SOL    HW214678   0.214   7.532   0.153  0.4751 -0.0574  0.1009
 4413SOL     OW14679   2.022   6.096   1.899 -0.0240  0.3048 -0.5804
 4413SOL    HW114680   2.109   6.130   1.876 -0.3708 -0.0082 -2.5201
 4413SOL    HW214681   2.008   6.125   1.989  1.7352  1.0815 -0.5148
 4414SOL     OW14682   1.381   6.202   2.306 -0.2981  0.5449 -0.2894
 4414SOL    HW114683   1.445   6.228   2.373 -1.0750  0.1383  0.6420
 4414SOL    HW214684   1.330   6.282   2.291 -1.0193  0.2938  0.6668
 4415SOL     OW14685   1.534   6.732   1.350 -0.2563 -0.0384  0.8829
 4415SOL    HW114686   1.489   6.648   1.358  1.3308 -0.8376  1.7799
 4415SOL    HW214687   1.617   6.711   1.307 -0.1150  1.1790  0.5172
 4416SOL     OW14688   0.637   5.562   3.069 -0.5128 -0.2112  0.8168
 4416SOL    HW114689   0.683   5.559   3.152 -0.7423  2.2458  1.1077
 4416SOL    HW214690   0.700   5.527   3.005  0.3130 -0.4707  1.7519
 4417SOL     OW14691   1.378   5.250   1.186 -0.4427  0.6336  0.2173
 4417SOL    HW114692   1.363   5.168   1.232  1.6312 -0.2305 -0.5506
 4417SOL    HW214693   1.293   5.271   1.147 -1.3224 -0.4590  1.4433
 4418SOL     OW14694   1.136   5.345   0.442  0.0690 -0.0713 -0.1374
 4418SOL    HW114695   1.153   5.327   0.349  2.7933 -0.1086  0.2726
 4418SOL    HW214696   1.077   5.420   0.441  0.2788  0.1283 -1.9056
 4419SOL     OW14697   1.750   5.563   1.062 -0.7484  0.2690 -0.1641
 4419SOL    HW114698   1.759   5.472   1.089 -1.1030  0.5014  0.7571
 4419SOL    HW214699   1.832   5.583   1.017 -0.9963 -0.7372 -1.1063
 4420SOL     OW14700   1.514   0.827  12.154 -0.3803  0.2027  0.4745
 4420SOL    HW114701   1.466   0.834  12.236  0.3943 -2.9236  1.3357
 4420SOL    HW214702   1.604   0.850  12.176 -0.3978  0.5568  0.1920
 4421SOL     OW14703   7.951   6.495   2.773 -0.3435  1.2037  0.1817
 4421SOL    HW114704   7.916   6.545   2.846 -1.0912 -1.2102  1.5714
 4421SOL    HW214705   8.046   6.493   2.788 -0.4249  1.2719  0.7045
 4422SOL     OW14706   7.969   7.103   1.510 -0.0844  0.1861  0.1535
 4422SOL    HW114707   7.950   7.122   1.418 -0.2332 -1.0867 -0.0971
 4422SOL    HW214708   8.008   7.016   1.509 -0.7135 -0.1291  1.3655
 4423SOL     OW14709   1.697   0.044   1.673 -0.3901  0.1119  0.8634
 4423SOL    HW114710   1.785   0.008   1.688 -0.9939 -1.1912  1.5099
 4423SOL    HW214711   1.710   0.138   1.666  1.2329 -0.1755 -0.4820
 4424SOL     OW14712   1.753   5.987   1.981  0.4725 -0.5871  0.1448
 4424SOL    HW114713   1.799   5.910   2.015  2.5257  1.1337  1.5891
 4424SOL    HW214714   1.805   6.015   1.906  0.6208  0.2164  0.5361
 4425SOL     OW14715   2.191   6.028  11.980  0.5773  0.6882 -0.8831
 4425SOL    HW114716   2.168   5.968  12.051  0.8197  1.5837 -0.0297
 4425SOL    HW214717   2.205   5.971  11.904  0.5089 -0.3027 -0.1675
 4426SOL     OW14718   0.436   5.130   0.944  0.2768  0.3927  0.4279
 4426SOL    HW114719   0.419   5.121   0.850 -0.0024  0.4271  0.4755
 4426SOL    HW214720   0.493   5.056   0.964  1.7337  1.3229 -0.1016
 4427SOL     OW14721   1.748   6.297   2.948 -0.3222 -0.1248  0.1925
 4427SOL    HW114722   1.681   6.365   2.947  0.0792  0.2951  0.7527
 4427SOL    HW214723   1.787   6.303   3.036  0.6211 -0.1809 -0.2066
 4428SOL     OW14724   1.707   6.047   0.536 -0.1991  0.3071  0.4145
 4428SOL    HW114725   1.722   6.076   0.446 -1.6628  1.6890  0.5719
 4428SOL    HW214726   1.641   5.978   0.528 -0.5114  0.6001  0.4350
 4429SOL     OW14727   1.195   7.797   9.989  0.2223 -0.2472 -0.5187
 4429SOL    HW114728   1.169   7.727   9.929 -2.0942  2.0703 -2.4188
 4429SOL    HW214729   1.193   7.877   9.936  2.3599  1.3693  1.6425
 4430SOL     OW14730   7.558   7.086  12.141 -0.1165  0.3781 -0.4456
 4430SOL    HW114731   7.642   7.125  12.166  0.5563 -0.6335 -1.0705
 4430SOL    HW214732   7.531   7.036  12.218  0.1608  0.2057 -0.4584
 4431SOL     OW14733   1.431   6.891   2.341 -0.5782  0.2263  0.0504
 4431SOL    HW114734   1.520   6.883   2.307 -0.6594  0.3767 -0.1963
 4431SOL    HW214735   1.389   6.808   2.320 -0.2311 -0.1908  0.9474
 4432SOL     OW14736   0.969   4.520  12.348  0.0512 -0.3458  0.6120
 4432SOL    HW114737   1.047   4.490  12.302  0.2251 -0.2351  0.8304
 4432SOL    HW214738   1.000   4.541  12.436  0.1324  1.2965  0.2346
 4433SOL     OW14739   2.618   7.195  12.415 -0.3887  0.3180 -0.0810
 4433SOL    HW114740   2.610   7.129  12.484  1.4297  0.0329 -0.0775
 4433SOL    HW214741   2.687   7.253  12.446 -0.4112  0.9051 -1.1049
 4434SOL     OW14742   6.775   7.586   2.493  0.3034 -0.0620 -0.2650
 4434SOL    HW114743   6.766   7.520   2.561  2.3648 -1.5168 -1.3024
 4434SOL    HW214744   6.821   7.542   2.422  2.1187  2.5483 -0.8629
 4435SOL     OW14745   0.789   5.561   2.064  0.0103 -0.3388 -0.4464
 4435SOL    HW114746   0.775   5.509   2.143 -0.2907 -1.7684 -1.3966
 4435SOL    HW214747   0.826   5.499   2.000  0.5591  0.8483 -1.3339
 4436SOL     OW14748   6.955   7.644   1.227  0.1376 -0.1622 -0.0232
 4436SOL    HW114749   6.993   7.713   1.281 -1.9467 -0.1071  1.4553
 4436SOL    HW214750   6.892   7.689   1.171  0.9334 -0.4893 -1.2202
 4437SOL     OW14751   0.846   4.918   2.879 -0.9326  0.4963 -0.3555
 4437SOL    HW114752   0.869   4.846   2.819 -0.5511  0.6907 -0.4475
 4437SOL    HW214753   0.818   4.874   2.959 -1.0967  0.2381 -0.5529
 4438SOL     OW14754   6.049   0.029  12.410 -0.2107 -0.3588 -0.1823
 4438SOL    HW114755   6.101   0.063  12.483  0.6240  0.6201 -1.1902
 4438SOL    HW214756   6.097  -0.049  12.381 -0.6874 -0.9011  0.4674
 4439SOL     OW14757   2.416   4.790  12.475  0.1870  0.9136  0.0211
 4439SOL    HW114758   2.352   4.783  12.403 -0.0040  0.8922  0.1916
 4439SOL    HW214759   2.383   4.863  12.528 -0.7651 -0.3018  1.1670
 4440SOL     OW14760   0.656   5.367   1.421  0.2306 -0.4628 -0.3446
 4440SOL    HW114761   0.607   5.449   1.411 -0.2616 -0.5662  1.0211
 4440SOL    HW214762   0.660   5.331   1.333 -0.6004  0.4362 -0.7736
 4441SOL     OW14763   1.633   4.849   0.822 -0.6104 -0.6382  0.5390
 4441SOL    HW114764   1.692   4.793   0.872 -0.7771 -0.8732  0.4730
 4441SOL    HW214765   1.685   4.928   0.804  0.4621 -1.6894 -1.3885
 4442SOL     OW14766   3.280   5.739   0.879  0.0181 -0.0746  0.3084
 4442SOL    HW114767   3.316   5.772   0.797  0.7732 -0.2559  0.5563
 4442SOL    HW214768   3.192   5.777   0.885  0.3463  0.7582 -0.0818
 4443SOL     OW14769   2.493   6.317   1.462 -0.0079 -0.1299 -0.1924
 4443SOL    HW114770   2.538   6.241   1.425 -1.5205 -0.7497 -0.8702
 4443SOL    HW214771   2.515   6.389   1.404  0.4757 -0.3219 -0.2473
 4444SOL     OW14772   0.908   6.807  11.568 -0.0398  0.5105  0.0542
 4444SOL    HW114773   0.840   6.740  11.573  0.4045 -0.0903 -1.4536
 4444SOL    HW214774   0.982   6.764  11.526  1.0176  1.3723  0.9691
 4445SOL     OW14775   2.711   5.668   0.082  0.1217  0.2315  0.3686
 4445SOL    HW114776   2.622   5.637   0.098  0.0238 -0.0414 -0.6548
 4445SOL    HW214777   2.748   5.603   0.023  1.4192 -0.3362  1.7379
 4446SOL     OW14778   7.909   6.188   1.115 -0.5123  0.2143 -0.0884
 4446SOL    HW114779   7.983   6.140   1.153 -0.2320 -0.0915 -0.9898
 4446SOL    HW214780   7.839   6.179   1.179 -0.4653 -1.4062 -0.2090
 4447SOL     OW14781   2.185   7.138   0.422  0.1883  0.0634 -0.2628
 4447SOL    HW114782   2.163   7.053   0.460  0.1166 -0.6348 -1.8216
 4447SOL    HW214783   2.270   7.124   0.380 -0.8719  0.0888 -2.5269
 4448SOL     OW14784   0.406   5.642  11.854 -0.2466  0.1195 -0.3713
 4448SOL    HW114785   0.378   5.564  11.807 -1.0479 -1.3338  2.2971
 4448SOL    HW214786   0.500   5.647  11.838 -0.0140 -1.9222  0.0149
 4449SOL     OW14787   2.727   7.558   4.396  0.5173  0.4337  0.0924
 4449SOL    HW114788   2.632   7.573   4.400  0.4713  0.0148  0.8385
 4449SOL    HW214789   2.756   7.564   4.487  1.2006  0.4961 -0.1249
 4450SOL     OW14790   0.553   5.296   2.164 -0.6102 -0.1756  0.2527
 4450SOL    HW114791   0.565   5.369   2.225 -0.3979  0.2026 -0.2323
 4450SOL    HW214792   0.629   5.240   2.177  0.0074  0.4794 -0.4391
 4451SOL     OW14793   0.090   5.411   2.474 -0.6093 -0.5851  0.2595
 4451SOL    HW114794   0.012   5.463   2.493  0.0618  0.3259  0.6356
 4451SOL    HW214795   0.123   5.386   2.561 -0.3566 -0.7490  0.1173
 4452SOL     OW14796   7.984   1.325   3.238 -0.1505  0.1856 -0.7087
 4452SOL    HW114797   7.938   1.248   3.274  0.0939  0.7600  0.9174
 4452SOL    HW214798   7.922   1.397   3.250 -0.3465  0.2979 -2.1548
 4453SOL     OW14799   2.382   5.992   0.597  0.3097 -0.6067 -0.3365
 4453SOL    HW114800   2.389   6.073   0.648  1.4118  0.3431 -1.8816
 4453SOL    HW214801   2.401   5.922   0.659  1.5981  0.4991  0.5761
 4454SOL     OW14802   0.390   6.119   2.790 -0.4598  0.5797  0.2228
 4454SOL    HW114803   0.481   6.090   2.788 -0.4812  0.4773  0.6065
 4454SOL    HW214804   0.390   6.200   2.740 -0.3062  0.1794 -0.4278
 4455SOL     OW14805   1.851   5.506   2.109  0.1879  0.0639 -0.2444
 4455SOL    HW114806   1.783   5.509   2.042  0.2257 -0.5636 -0.3173
 4455SOL    HW214807   1.807   5.474   2.188  0.0324  1.2764  0.1776
 4456SOL     OW14808   1.197   6.471   3.708 -0.5223 -0.5260 -0.6729
 4456SOL    HW114809   1.255   6.429   3.644  0.0275  0.0203 -0.5407
 4456SOL    HW214810   1.181   6.404   3.774 -0.0543 -0.6808 -0.7182
 4457SOL     OW14811   0.593   6.999   4.414 -0.1292 -0.0052 -0.1367
 4457SOL    HW114812   0.577   6.938   4.486 -1.9486  1.4450  0.7929
 4457SOL    HW214813   0.596   7.085   4.456  0.4703  0.7326 -1.6140
 4458SOL     OW14814   7.329   6.278   3.742  0.1351 -0.8441  0.0135
 4458SOL    HW114815   7.377   6.211   3.791  3.1457  1.4792  0.4846
 4458SOL    HW214816   7.304   6.343   3.807 -0.0643 -0.0366 -0.8527
 4459SOL     OW14817   0.472   4.901   4.303 -0.4744  0.0082  0.4345
 4459SOL    HW114818   0.455   4.876   4.213  1.7502 -0.1534  0.0100
 4459SOL    HW214819   0.562   4.936   4.303 -0.1549 -0.6118  2.6793
 4460SOL     OW14820   7.958   0.285   2.183 -0.3770 -0.3137 -0.0969
 4460SOL    HW114821   8.046   0.251   2.168  0.5351  0.7086  2.4899
 4460SOL    HW214822   7.949   0.290   2.278 -2.1490  2.2891 -0.2922
 4461SOL     OW14823   1.345   7.843   3.471 -0.0147 -0.0283 -0.1121
 4461SOL    HW114824   1.436   7.836   3.442  0.4199  3.5739 -0.1811
 4461SOL    HW214825   1.297   7.872   3.393 -0.8013  0.1637  0.4254
 4462SOL     OW14826   7.498   5.362   4.055 -0.2647 -0.3380 -0.2520
 4462SOL    HW114827   7.575   5.409   4.087  0.2334 -1.1875 -0.1524
 4462SOL    HW214828   7.442   5.430   4.017  0.7460  0.2479 -0.7454
 4463SOL     OW14829   1.772   4.243   1.201 -0.0911  0.3311 -0.0465
 4463SOL    HW114830   1.677   4.244   1.193 -0.1540 -2.1858 -0.4331
 4463SOL    HW214831   1.800   4.175   1.139  1.6579 -1.2023  2.2785
 4464SOL     OW14832   0.667   1.010   2.663 -0.3136  0.1527  0.7247
 4464SOL    HW114833   0.633   0.935   2.613  0.3840  0.5720 -0.4076
 4464SOL    HW214834   0.697   1.072   2.596  0.3624  0.8684  1.6716
 4465SOL     OW14835   1.235   0.836   4.393  0.8449  0.7694 -0.6999
 4465SOL    HW114836   1.257   0.754   4.438  3.2296  2.4009  1.3820
 4465SOL    HW214837   1.313   0.856   4.341 -0.6111  0.6237 -3.0598
 4466SOL     OW14838   0.327   7.789   2.526  0.6749 -0.1875  0.0709
 4466SOL    HW114839   0.377   7.749   2.454  1.7542  2.1123 -0.5339
 4466SOL    HW214840   0.269   7.851   2.483  0.4303  0.3116  1.0966
 4467SOL     OW14841   0.449   7.195   2.596 -0.4018  0.4939 -0.4136
 4467SOL    HW114842   0.446   7.100   2.589  0.6212  0.2997  1.3778
 4467SOL    HW214843   0.434   7.213   2.688  0.2491  2.0440 -0.5853
 4468SOL     OW14844   1.111   0.205   3.967 -0.0458 -1.0134 -0.1923
 4468SOL    HW114845   1.066   0.192   4.050 -1.5577 -2.2352 -1.1480
 4468SOL    HW214846   1.148   0.293   3.973 -0.1759 -1.0530  1.7216
 4469SOL     OW14847   7.633   1.122   0.886  0.2049  0.2094  0.0093
 4469SOL    HW114848   7.567   1.125   0.955 -1.2242  1.8403 -1.3295
 4469SOL    HW214849   7.609   1.045   0.834 -0.4965  0.6409 -0.3173
 4470SOL     OW14850   2.382   4.553   3.233 -0.5954  0.3910 -0.8475
 4470SOL    HW114851   2.427   4.596   3.306 -2.1096 -1.1461  1.1227
 4470SOL    HW214852   2.452   4.516   3.180  0.5623 -1.0847  1.5572
 4471SOL     OW14853   0.709   7.897   2.512 -0.5912 -0.2660  0.2484
 4471SOL    HW114854   0.732   7.876   2.603 -1.6847  1.4982  1.0017
 4471SOL    HW214855   0.657   7.823   2.483  0.6143 -1.3271  0.6867
 4472SOL     OW14856   2.339   6.623   2.429 -0.1016  0.1909  0.4307
 4472SOL    HW114857   2.329   6.527   2.424  0.4650  0.1513 -0.1468
 4472SOL    HW214858   2.421   6.640   2.383 -0.7165  1.0565 -0.3782
 4473SOL     OW14859   1.303   7.162   2.449  0.5784  0.1166  0.4333
 4473SOL    HW114860   1.389   7.204   2.453  0.2079  1.0683 -0.8551
 4473SOL    HW214861   1.284   7.157   2.355 -1.2850  1.0157  0.7166
 4474SOL     OW14862   1.519   6.450   2.897 -0.5765 -0.1488  0.4490
 4474SOL    HW114863   1.433   6.411   2.910 -0.9968  1.0121  1.2887
 4474SOL    HW214864   1.515   6.533   2.944  0.5535  0.5392 -0.6296
 4475SOL     OW14865   1.314   6.232   3.170  0.3540  0.4627 -1.1256
 4475SOL    HW114866   1.227   6.241   3.130  0.8815 -0.2520 -2.4985
 4475SOL    HW214867   1.302   6.167   3.239 -0.7660  2.3555  0.5835
 4476SOL     OW14868   1.324   5.202   5.424  0.1799  0.0287 -0.2416
 4476SOL    HW114869   1.363   5.119   5.398  1.0779  1.1086 -2.6540
 4476SOL    HW214870   1.230   5.187   5.419  0.3270 -0.6089 -1.6020
 4477SOL     OW14871   0.125   0.782   3.772 -0.4205  0.4192 -0.1897
 4477SOL    HW114872   0.140   0.812   3.861 -1.9010  1.5009 -0.2595
 4477SOL    HW214873   0.141   0.688   3.774 -1.8167  0.1767  1.5601
 4478SOL     OW14874   2.225   6.800   4.990 -0.5266 -0.0827 -0.1719
 4478SOL    HW114875   2.146   6.767   4.948 -1.7325  1.0581  1.0798
 4478SOL    HW214876   2.279   6.831   4.918 -1.9780  0.6968 -0.9796
 4479SOL     OW14877   5.540   5.553   1.003 -0.4706 -0.3988 -0.0318
 4479SOL    HW114878   5.553   5.480   1.064 -0.1803  0.0818  0.4848
 4479SOL    HW214879   5.446   5.568   1.004 -0.3800  0.1670  0.9586
 4480SOL     OW14880   7.396   5.934   3.903  0.0107 -0.0295 -0.5252
 4480SOL    HW114881   7.420   6.014   3.949 -1.5971 -1.3782  3.0535
 4480SOL    HW214882   7.405   5.865   3.969 -2.0363 -2.2793 -2.4006
 4481SOL     OW14883   0.672   6.433   1.968  0.2771  0.3078 -0.7033
 4481SOL    HW114884   0.687   6.456   1.877 -1.8971  1.4627 -0.8442
 4481SOL    HW214885   0.626   6.508   2.005  0.9508 -0.1988  1.3228
 4482SOL     OW14886   7.877   7.486   4.743 -0.1690  0.0976  0.2376
 4482SOL    HW114887   7.786   7.514   4.737  0.0288  0.5709 -0.8362
 4482SOL    HW214888   7.903   7.470   4.652  0.7632 -0.2180  0.5473
 4483SOL     OW14889   6.871   6.106   3.203 -0.1296 -0.5757 -0.0792
 4483SOL    HW114890   6.953   6.117   3.155  0.6329 -2.2552  0.7857
 4483SOL    HW214891   6.816   6.054   3.144  0.5020 -1.9230  0.4953
 4484SOL     OW14892   0.591   7.801   1.883 -0.2568  0.1780  0.3633
 4484SOL    HW114893   0.577   7.798   1.977 -2.1669  0.0121  0.1162
 4484SOL    HW214894   0.542   7.726   1.848 -0.5249  0.8819 -0.8497
 4485SOL     OW14895   0.524   5.752   2.941 -0.2877  0.1401 -0.0734
 4485SOL    HW114896   0.565   5.696   2.874  1.6904  0.1416  1.0507
 4485SOL    HW214897   0.538   5.704   3.023  3.4869  3.0615  1.3051
 4486SOL     OW14898   6.590   6.161   2.573 -0.0870  0.6429  0.5376
 4486SOL    HW114899   6.530   6.188   2.642 -0.8345  1.0443 -0.2420
 4486SOL    HW214900   6.653   6.104   2.617 -2.2682 -1.6070  1.0521
 4487SOL     OW14901   0.704   7.320   2.042  0.3646 -0.4035  0.2650
 4487SOL    HW114902   0.750   7.362   2.115 -1.5738  0.0488  1.2917
 4487SOL    HW214903   0.710   7.226   2.060  0.6732 -0.3354  0.5199
 4488SOL     OW14904   7.323   5.179   3.395  0.4065 -0.0212 -0.2775
 4488SOL    HW114905   7.258   5.111   3.416  1.3353 -0.3112  1.9038
 4488SOL    HW214906   7.391   5.132   3.346  0.9606 -0.6765  1.0672
 4489SOL     OW14907   7.263   4.197   3.518 -0.4798 -0.3719 -0.1464
 4489SOL    HW114908   7.191   4.259   3.532  2.0250  2.7413 -0.1302
 4489SOL    HW214909   7.302   4.223   3.435  1.1259 -1.4842  0.2055
 4490SOL     OW14910   2.187   6.615   3.227  0.4203  0.0102  0.0507
 4490SOL    HW114911   2.248   6.542   3.218  1.6633  1.0831 -0.8828
 4490SOL    HW214912   2.235   6.680   3.278 -0.0350  0.7875 -0.4864
 4491SOL     OW14913   6.900   4.912   2.446 -0.8024  0.1749 -0.2513
 4491SOL    HW114914   6.992   4.884   2.438 -0.4761  1.2727 -0.4454
 4491SOL    HW214915   6.874   4.879   2.532 -0.4276 -0.6782 -0.4459
 4492SOL     OW14916   0.275   5.289  12.472  1.1059  0.8787  0.6627
 4492SOL    HW114917   0.300   5.212  12.522 -1.6594 -0.5028  0.1427
 4492SOL    HW214918   0.291   5.266  12.381 -2.6890 -0.5836  0.1714
 4493SOL     OW14919   6.174   6.964   3.272 -0.3825  0.1358 -0.2387
 4493SOL    HW114920   6.211   6.877   3.263 -1.6217 -0.4002 -0.4191
 4493SOL    HW214921   6.119   6.959   3.351  0.8339  1.2571  0.7307
 4494SOL     OW14922   7.460   6.366   3.440  0.4018 -0.0323  0.1411
 4494SOL    HW114923   7.554   6.372   3.421  0.3583 -0.5644 -0.2858
 4494SOL    HW214924   7.456   6.318   3.523  0.5101  0.1221  0.2370
 4495SOL     OW14925   0.117   5.129   1.815  0.1791 -0.3693 -0.1283
 4495SOL    HW114926   0.158   5.044   1.800 -0.0581 -0.1375 -2.3807
 4495SOL    HW214927   0.075   5.151   1.732  0.0350  1.8620  0.4655
 4496SOL     OW14928   1.827   4.890   3.138  0.2750 -0.6750  0.2426
 4496SOL    HW114929   1.797   4.950   3.205  0.0668 -0.3510 -0.1407
 4496SOL    HW214930   1.921   4.882   3.153  0.7974  1.6755 -1.1899
 4497SOL     OW14931   0.903   6.725   2.708  0.0392  0.1532  0.6561
 4497SOL    HW114932   0.895   6.798   2.646  0.8078  0.8303  1.3304
 4497SOL    HW214933   0.987   6.686   2.687  0.0013 -0.0251  0.8430
 4498SOL     OW14934   7.120   5.047   3.496 -0.3297 -0.2245 -0.0999
 4498SOL    HW114935   7.094   5.045   3.588  0.3097 -0.4705  0.0764
 4498SOL    HW214936   7.053   4.995   3.451 -0.0477 -1.0078  0.3752
 4499SOL     OW14937   1.331   7.371   3.910 -0.2257 -0.3911  0.1706
 4499SOL    HW114938   1.381   7.352   3.831  0.1338  2.3963 -0.3916
 4499SOL    HW214939   1.240   7.379   3.880 -0.4769 -1.6661  0.5153
 4500SOL     OW14940   0.289   5.631   2.781  0.4963 -0.0756  0.2681
 4500SOL    HW114941   0.319   5.721   2.794  0.5294 -0.1205  0.4951
 4500SOL    HW214942   0.245   5.633   2.696  0.7536  0.0896  0.1377
 4501SOL     OW14943   2.387   6.315   2.175  0.0029  0.0199  0.6009
 4501SOL    HW114944   2.315   6.365   2.215 -0.1123 -0.1532  0.6100
 4501SOL    HW214945   2.378   6.331   2.081  0.8571  1.2179  0.7001
 4502SOL     OW14946   1.199   6.785   2.895  0.3588  0.3612 -0.0460
 4502SOL    HW114947   1.197   6.777   2.799  0.7476  0.3136 -0.0532
 4502SOL    HW214948   1.263   6.853   2.912  1.7274 -0.9289  0.2334
 4503SOL     OW14949   7.651   0.093   3.853  0.1455  0.0152 -0.0311
 4503SOL    HW114950   7.582   0.062   3.912  0.0234  0.3584  0.0078
 4503SOL    HW214951   7.643   0.037   3.775 -0.3606  0.2346 -0.1425
 4504SOL     OW14952   1.324   6.875   1.274  0.6978  0.3509  0.1666
 4504SOL    HW114953   1.257   6.807   1.266  1.3261 -0.2243 -0.4520
 4504SOL    HW214954   1.404   6.827   1.294  1.0752  0.9575  0.1425
 4505SOL     OW14955   1.039   6.595   3.525 -0.1878 -0.1503 -0.2769
 4505SOL    HW114956   1.074   6.538   3.594 -3.2821 -0.7562  0.9729
 4505SOL    HW214957   1.067   6.683   3.550 -1.5786 -0.2967  2.1303
 4506SOL     OW14958   1.343   1.095   2.027 -0.4168 -0.3976  0.1865
 4506SOL    HW114959   1.300   1.105   1.942  0.9981 -0.0287 -0.5233
 4506SOL    HW214960   1.285   1.038   2.077 -1.3235 -0.5469 -0.9960
 4507SOL     OW14961   7.833   5.615   3.388  0.0141 -0.4211 -0.4101
 4507SOL    HW114962   7.908   5.561   3.411  1.3497  1.4382 -0.1538
 4507SOL    HW214963   7.760   5.554   3.379  1.1406 -2.0777  1.1800
 4508SOL     OW14964   0.413   6.094   3.388 -0.3306  0.4045  0.0437
 4508SOL    HW114965   0.460   6.177   3.396 -1.2675  1.1713 -1.6875
 4508SOL    HW214966   0.435   6.063   3.300  2.6406 -2.9420  1.7498
 4509SOL     OW14967   1.859   0.325   2.151 -0.4492  0.5067  0.0398
 4509SOL    HW114968   1.806   0.331   2.230 -0.6334 -1.3763  0.0967
 4509SOL    HW214969   1.808   0.271   2.091 -0.2226  1.7166 -1.3229
 4510SOL     OW14970   2.250   4.621   2.635 -0.2062 -0.4911 -0.5681
 4510SOL    HW114971   2.312   4.694   2.635  1.0655 -1.3740  3.0806
 4510SOL    HW214972   2.283   4.563   2.565  2.7113 -0.5064  0.6479
 4511SOL     OW14973   7.250   4.776   1.660  0.0095 -0.2098 -0.0859
 4511SOL    HW114974   7.187   4.765   1.731  0.4021 -0.9746  0.1499
 4511SOL    HW214975   7.326   4.725   1.687 -0.3636 -1.7203 -1.7014
 4512SOL     OW14976   0.903   0.119   3.346  0.2604  0.4793  0.1782
 4512SOL    HW114977   0.940   0.065   3.276 -0.1415  0.2837  0.1164
 4512SOL    HW214978   0.933   0.208   3.327  0.0460  0.4448 -0.3082
 4513SOL     OW14979   7.723   7.820   3.384  0.0249  0.6389 -0.3405
 4513SOL    HW114980   7.710   7.909   3.354  0.7094  0.6126 -0.7146
 4513SOL    HW214981   7.811   7.797   3.356  0.1914  0.1601  0.5468
 4514SOL     OW14982   0.839   5.394   4.877 -0.5857  0.1517 -0.0303
 4514SOL    HW114983   0.920   5.371   4.923 -0.1857  0.5351 -0.5319
 4514SOL    HW214984   0.805   5.470   4.925  1.0055  1.9885 -1.6399
 4515SOL     OW14985   0.968   5.075   1.705  0.2097  0.6972  0.0911
 4515SOL    HW114986   0.998   5.108   1.621  0.3469  0.7429  0.1580
 4515SOL    HW214987   1.048   5.044   1.749  0.0277 -0.1589 -0.1660
 4516SOL     OW14988   0.456   5.369   2.941  0.8615  0.0535 -0.1466
 4516SOL    HW114989   0.502   5.417   3.010  0.1937  0.3463  0.1103
 4516SOL    HW214990   0.516   5.300   2.915  1.4809  0.4927  0.1038
 4517SOL     OW14991   2.317   6.784   5.532  0.2825  0.0455  0.1337
 4517SOL    HW114992   2.368   6.838   5.592 -0.9953  1.4447  0.0159
 4517SOL    HW214993   2.338   6.817   5.445 -0.3358  0.2249  0.0458
 4518SOL     OW14994   1.731   7.628   1.662  0.0847 -0.2223  0.8745
 4518SOL    HW114995   1.640   7.629   1.632  0.1845  1.4355  0.5275
 4518SOL    HW214996   1.733   7.562   1.731 -1.1487 -0.9925  0.2089
 4519SOL     OW14997   7.852   0.066   4.089  0.5329 -0.1278 -0.3877
 4519SOL    HW114998   7.805   0.149   4.080  1.7651  0.5085 -1.1568
 4519SOL    HW214999   7.782   0.000   4.094 -0.4507  0.8493 -0.7641
 4520SOL     OW15000   0.985   4.216   2.983  0.5206 -0.5033  0.1332
 4520SOL    HW115001   0.940   4.241   2.903  0.6352 -2.1026 -0.4621
 4520SOL    HW215002   0.939   4.138   3.014  1.1612 -0.5486  1.0248
 4521SOL     OW15003   0.866   7.359   1.832 -0.3120  0.1185  0.7186
 4521SOL    HW115004   0.838   7.347   1.922 -0.4031 -1.0229  0.5550
 4521SOL    HW215005   0.892   7.271   1.803  0.3428  0.5806 -0.1528
 4522SOL     OW15006   0.303   6.566   2.170 -0.4648 -0.0070 -0.0079
 4522SOL    HW115007   0.264   6.501   2.229 -0.2151 -0.1006  0.0583
 4522SOL    HW215008   0.237   6.581   2.103  0.5681 -2.5628 -1.7448
 4523SOL     OW15009   7.763   6.503   2.573  0.4593  0.0285 -0.3296
 4523SOL    HW115010   7.748   6.423   2.522 -0.4383  0.0543 -0.1260
 4523SOL    HW215011   7.832   6.480   2.636  2.2408  0.2482 -2.0942
 4524SOL     OW15012   1.173   0.145   3.157 -0.2113  0.3081  0.2954
 4524SOL    HW115013   1.135   0.215   3.209 -0.9547 -0.1404  0.3733
 4524SOL    HW215014   1.144   0.163   3.067  0.4936  0.6955  0.1400
 4525SOL     OW15015   2.685   5.874   2.721 -0.2105  0.0534 -0.2704
 4525SOL    HW115016   2.645   5.949   2.764 -0.8321 -0.4595  0.0763
 4525SOL    HW215017   2.764   5.908   2.679 -0.2391  0.7942  0.2760
 4526SOL     OW15018   7.484   6.420   2.175  0.2580  0.0895 -0.0727
 4526SOL    HW115019   7.445   6.333   2.177 -2.9227  1.3548 -0.8539
 4526SOL    HW215020   7.516   6.430   2.085  0.2513 -0.1015 -0.0966
 4527SOL     OW15021   4.208   0.487   2.577  0.1499 -0.0450 -0.4054
 4527SOL    HW115022   4.183   0.555   2.639 -2.5571 -2.7214  1.7197
 4527SOL    HW215023   4.146   0.495   2.505  0.6640  0.4814 -0.8024
 4528SOL     OW15024   0.932   4.137   3.365 -0.1639  0.1140  0.3579
 4528SOL    HW115025   0.938   4.110   3.456 -0.3599  0.3792  0.4520
 4528SOL    HW215026   1.017   4.114   3.327  0.7716  2.0179  1.1680
 4529SOL     OW15027   6.445   5.168   2.866  0.0745 -0.2226 -0.1986
 4529SOL    HW115028   6.416   5.256   2.843 -0.7759 -0.6439 -0.8010
 4529SOL    HW215029   6.409   5.112   2.797 -0.2717 -1.1754  0.7249
 4530SOL     OW15030   7.099   7.047   2.883  0.0628 -0.2741 -0.0108
 4530SOL    HW115031   7.069   7.053   2.974 -0.3425 -1.8609 -0.0222
 4530SOL    HW215032   7.189   7.014   2.889  0.5573  0.9779 -0.1489
 4531SOL     OW15033   0.453   5.596   3.371  0.0303 -0.2304 -0.1321
 4531SOL    HW115034   0.472   5.502   3.374 -0.5735 -0.3309  0.7317
 4531SOL    HW215035   0.539   5.637   3.364  0.4584 -0.7602  1.6438
 4532SOL     OW15036   0.941   7.423   3.589  0.0617 -0.0498 -0.3989
 4532SOL    HW115037   0.981   7.504   3.556 -0.1976  0.2832  0.0870
 4532SOL    HW215038   0.868   7.453   3.645 -0.0225 -0.6162 -0.1950
 4533SOL     OW15039   1.050   6.256   1.916  0.0325 -0.1177  0.0644
 4533SOL    HW115040   1.054   6.329   1.977 -2.0818  0.2159 -0.1261
 4533SOL    HW215041   0.996   6.190   1.961 -0.8905 -0.1816 -1.1005
 4534SOL     OW15042   1.327   7.618   4.114 -0.0924 -0.5842  0.0469
 4534SOL    HW115043   1.370   7.559   4.053 -2.4444 -1.1110 -1.2240
 4534SOL    HW215044   1.380   7.697   4.114  0.7214 -1.0966 -1.6180
 4535SOL     OW15045   2.079   4.993   1.481  0.4940  0.0538 -0.0918
 4535SOL    HW115046   2.080   5.080   1.443  3.0624  0.1932  0.1164
 4535SOL    HW215047   2.051   5.006   1.572 -1.7828  0.2261 -0.7413
 4536SOL     OW15048   7.247   7.752   1.403  0.0389  0.4863  0.3820
 4536SOL    HW115049   7.274   7.713   1.486  1.1611  1.4261  0.4772
 4536SOL    HW215050   7.240   7.845   1.421  2.1466  0.9747 -0.9986
 4537SOL     OW15051   2.221   6.811   2.164 -0.6418 -0.3240 -0.0004
 4537SOL    HW115052   2.222   6.822   2.259 -2.6542  1.3419 -0.1002
 4537SOL    HW215053   2.280   6.879   2.132 -0.1819 -0.7035  0.0308
 4538SOL     OW15054   1.150   7.380   1.560  0.1687  0.7376 -0.6418
 4538SOL    HW115055   1.240   7.348   1.548 -0.3923 -1.4190  0.3837
 4538SOL    HW215056   1.149   7.415   1.649  0.3190  2.1027 -1.1517
 4539SOL     OW15057   0.494   6.750   2.898  0.1213  0.0670 -0.2628
 4539SOL    HW115058   0.400   6.744   2.915  0.3146 -1.2320  0.4881
 4539SOL    HW215059   0.519   6.838   2.928 -0.6407 -0.0082  0.6307
 4540SOL     OW15060   2.070   6.918   3.907 -0.2613 -0.0954  0.0663
 4540SOL    HW115061   2.138   6.962   3.856  0.5631 -1.6951 -0.2773
 4540SOL    HW215062   2.002   6.897   3.842 -0.9319  1.1576  0.3386
 4541SOL     OW15063   3.064   5.587   3.858  0.1890  0.1543  0.1671
 4541SOL    HW115064   3.116   5.623   3.786 -1.5061  1.6860 -0.3701
 4541SOL    HW215065   3.129   5.563   3.924  1.5711  2.8557 -0.0640
 4542SOL     OW15066   2.808   6.315   3.649  0.1727  0.3210 -0.4582
 4542SOL    HW115067   2.843   6.361   3.725 -0.1835 -0.4222  0.1668
 4542SOL    HW215068   2.775   6.385   3.593  1.6739  0.9806 -0.5907
 4543SOL     OW15069   7.699   4.094   5.704  0.1868 -0.3340 -0.4214
 4543SOL    HW115070   7.656   4.096   5.618 -0.4712  2.2315 -0.1068
 4543SOL    HW215071   7.657   4.021   5.749  0.3532 -1.5709 -2.1417
 4544SOL     OW15072   2.322   6.938   2.678 -0.2228  0.1416  0.0695
 4544SOL    HW115073   2.352   6.977   2.760  0.6911 -0.9553  0.2805
 4544SOL    HW215074   2.392   6.956   2.615 -0.9824  1.1073 -0.5437
 4545SOL     OW15075   7.898   6.450   1.165 -0.0271  0.4750  0.8301
 4545SOL    HW115076   7.987   6.453   1.201 -1.1028 -0.6418  3.8868
 4545SOL    HW215077   7.888   6.360   1.135 -0.0271  0.6861  0.1916
 4546SOL     OW15078   3.077   5.947   3.758 -0.3605  0.3307 -0.2722
 4546SOL    HW115079   3.022   5.870   3.744 -1.5778  0.8467  1.3178
 4546SOL    HW215080   3.120   5.931   3.842 -0.0924  1.0920 -0.2583
 4547SOL     OW15081   0.178   7.992   2.825 -0.2436  0.3625 -0.5267
 4547SOL    HW115082   0.241   8.015   2.756  0.9207  1.5370  0.8675
 4547SOL    HW215083   0.226   8.005   2.907 -2.6097  2.4727  0.6760
 4548SOL     OW15084   1.182   5.663   2.937  0.1014 -0.1190 -0.0372
 4548SOL    HW115085   1.244   5.596   2.966 -0.4514 -0.8523 -0.4987
 4548SOL    HW215086   1.185   5.658   2.841 -0.8298 -0.3201 -0.0620
 4549SOL     OW15087   1.862   5.935   2.614 -0.1764 -0.1071 -0.4262
 4549SOL    HW115088   1.875   6.003   2.680  1.7064 -0.1919 -0.6509
 4549SOL    HW215089   1.767   5.930   2.604 -0.5975 -0.6553  2.7964
 4550SOL     OW15090   0.337   7.783   3.430 -0.2942 -0.4307  0.1165
 4550SOL    HW115091   0.338   7.687   3.429  1.4655 -0.4389 -0.6815
 4550SOL    HW215092   0.247   7.805   3.453 -0.9031 -2.2695 -0.2863
 4551SOL     OW15093   0.573   7.845   3.146  0.1815 -0.5001  0.0166
 4551SOL    HW115094   0.631   7.788   3.095 -0.2479 -0.1248 -0.9086
 4551SOL    HW215095   0.485   7.816   3.124 -0.0919  1.1949 -1.3440
 4552SOL     OW15096   6.371   7.393   1.933 -0.2755 -0.1981 -0.3551
 4552SOL    HW115097   6.390   7.373   2.025 -1.9914 -1.3961 -0.2135
 4552SOL    HW215098   6.411   7.321   1.884  1.1390  0.7421 -0.6336
 4553SOL     OW15099   7.913   0.283   1.598  0.5583  0.4065 -0.4424
 4553SOL    HW115100   7.837   0.291   1.540  1.0542  0.5278 -1.0923
 4553SOL    HW215101   7.988   0.289   1.539  1.0705 -0.2390  0.1259
 4554SOL     OW15102   2.286   5.888   2.067 -0.0170  0.0978  0.0308
 4554SOL    HW115103   2.236   5.855   1.992  0.3613 -0.4092 -0.0028
 4554SOL    HW215104   2.220   5.918   2.129 -0.3651 -0.5529 -0.0192
 4555SOL     OW15105   0.818   6.230   2.090 -0.2055  0.5079 -0.4795
 4555SOL    HW115106   0.872   6.257   2.164 -0.8751 -2.1109  1.0794
 4555SOL    HW215107   0.787   6.312   2.052 -0.4322  1.9739  2.5790
 4556SOL     OW15108   0.774   1.430   4.208  0.2261  0.3350 -0.1531
 4556SOL    HW115109   0.700   1.489   4.195  0.2311  0.3619 -0.0603
 4556SOL    HW215110   0.826   1.471   4.278  0.5426  0.5225 -0.4953
 4557SOL     OW15111   1.145   5.867   3.154  0.6711 -0.1152 -0.1138
 4557SOL    HW115112   1.227   5.901   3.191  0.7080  1.9025 -1.8801
 4557SOL    HW215113   1.174   5.806   3.086  0.6525 -0.8187  0.4964
 4558SOL     OW15114   2.402   5.115   2.397  0.1617  0.1294 -0.4078
 4558SOL    HW115115   2.475   5.115   2.335 -0.5734  0.0044 -1.2990
 4558SOL    HW215116   2.416   5.193   2.450  0.5040  0.5566 -1.1019
 4559SOL     OW15117   1.847   5.488   2.805  0.2939  0.4135 -0.3339
 4559SOL    HW115118   1.943   5.499   2.804  0.4049 -0.4940 -0.5896
 4559SOL    HW215119   1.828   5.458   2.894  0.3346 -0.1048 -0.4989
 4560SOL     OW15120   7.408   5.695   4.607  0.1406  0.2534 -0.2470
 4560SOL    HW115121   7.367   5.746   4.677  3.2862  1.0088  1.2579
 4560SOL    HW215122   7.415   5.607   4.643  0.5478  0.3218 -0.1558
 4561SOL     OW15123   7.428   7.173   5.297  0.2491  0.3972  0.0503
 4561SOL    HW115124   7.498   7.238   5.307  0.5513  0.2289 -0.7945
 4561SOL    HW215125   7.469   7.103   5.245  0.2243 -0.9273  1.7443
 4562SOL     OW15126   1.322   6.510   2.275  1.1603  0.0777  0.2684
 4562SOL    HW115127   1.355   6.532   2.362  0.4726 -1.2532  0.8784
 4562SOL    HW215128   1.344   6.587   2.222  1.4512  0.9740  1.6351
 4563SOL     OW15129   2.538   5.144   0.540 -0.0949  0.0879 -0.6346
 4563SOL    HW115130   2.626   5.120   0.569 -0.4224  0.0691  0.3717
 4563SOL    HW215131   2.546   5.155   0.445  0.4408 -2.3502 -0.9358
 4564SOL     OW15132   6.616   6.425   3.047 -0.5584 -0.5877 -0.3296
 4564SOL    HW115133   6.669   6.366   2.993 -0.0495  1.8907 -2.7653
 4564SOL    HW215134   6.527   6.392   3.038 -0.1543 -1.6889 -0.5583
 4565SOL     OW15135   6.417   7.960   3.832 -0.3061  0.0203 -0.4462
 4565SOL    HW115136   6.347   7.954   3.768 -0.7035 -0.0895 -0.0111
 4565SOL    HW215137   6.414   8.050   3.863 -0.4348 -0.0559 -0.2327
 4566SOL     OW15138   1.885   3.725   2.978  0.6542  0.0576  0.0637
 4566SOL    HW115139   1.796   3.715   3.011  0.3396  1.4853 -0.3041
 4566SOL    HW215140   1.875   3.774   2.897  1.7380 -0.2661 -0.2816
 4567SOL     OW15141   0.235   6.520   3.088 -0.1241  0.3997  0.0464
 4567SOL    HW115142   0.175   6.545   3.158 -0.9444  0.1626 -0.5593
 4567SOL    HW215143   0.196   6.441   3.050  0.2279  0.6135 -0.7717
 4568SOL     OW15144   0.670   7.315   3.430  0.0835  0.3126  0.5917
 4568SOL    HW115145   0.700   7.383   3.491  0.3306  0.1667  0.6343
 4568SOL    HW215146   0.662   7.361   3.346 -0.5100  0.5736  0.7882
 4569SOL     OW15147   0.203   6.197   0.730 -0.1274 -0.0344  0.4284
 4569SOL    HW115148   0.213   6.172   0.638 -0.6871 -2.1778  0.8826
 4569SOL    HW215149   0.154   6.124   0.768  0.0301  0.8573  2.4070
 4570SOL     OW15150   0.621   5.643   1.823 -0.2355 -0.6239  0.1725
 4570SOL    HW115151   0.656   5.656   1.911  0.3787 -0.0174 -0.1552
 4570SOL    HW215152   0.579   5.727   1.802  1.3137 -0.0668 -0.8638
 4571SOL     OW15153   2.119   6.596   2.915 -0.6767  0.3021  0.0786
 4571SOL    HW115154   2.130   6.624   3.006 -0.4201  0.8150 -0.1093
 4571SOL    HW215155   2.159   6.509   2.912 -1.7532 -0.2362  0.7340
 4572SOL     OW15156   2.083   7.934   3.564  0.0460 -0.2230  0.2651
 4572SOL    HW115157   2.008   7.994   3.573  1.2858  1.3710  0.3925
 4572SOL    HW215158   2.112   7.920   3.654 -0.1481 -0.9206  0.2222
 4573SOL     OW15159   0.500   0.867   4.056  0.4020  0.3875  0.0468
 4573SOL    HW115160   0.540   0.790   4.017 -0.8577  0.0472 -0.6206
 4573SOL    HW215161   0.573   0.928   4.068  1.2511 -0.5268 -0.3353
 4574SOL     OW15162   1.917   4.906   2.207 -0.7330  0.0896 -0.1673
 4574SOL    HW115163   1.953   4.988   2.241  0.1904 -0.2490 -0.2832
 4574SOL    HW215164   1.851   4.879   2.271 -0.5223  0.5457  0.2441
 4575SOL     OW15165   2.221   6.944   0.137 -0.0567 -0.4367  0.5935
 4575SOL    HW115166   2.201   6.886   0.211 -0.8273 -1.3763 -0.3281
 4575SOL    HW215167   2.291   6.900   0.090  0.9717  0.5385  1.1576
 4576SOL     OW15168   2.652   7.122   2.944 -0.1648 -0.2236  0.7603
 4576SOL    HW115169   2.566   7.081   2.941 -0.4867  0.4580  0.5612
 4576SOL    HW215170   2.637   7.213   2.920  0.6871 -0.2121  0.2016
 4577SOL     OW15171   1.121   7.240   4.179  0.4062 -0.6060 -0.2806
 4577SOL    HW115172   1.180   7.169   4.154  0.9540  0.0104 -0.8141
 4577SOL    HW215173   1.043   7.227   4.125  0.5554 -0.7374 -0.4649
 4578SOL     OW15174   0.264   5.426   1.898  0.0599 -0.7662  0.3250
 4578SOL    HW115175   0.255   5.521   1.898 -1.6856 -0.6914  4.3993
 4578SOL    HW215176   0.358   5.411   1.903  0.4696  0.5751 -1.9243
 4579SOL     OW15177   0.066   5.181   3.692 -0.3811  0.4019 -0.2380
 4579SOL    HW115178   0.043   5.117   3.625 -0.0575  0.3527 -0.3041
 4579SOL    HW215179  -0.001   5.171   3.759 -0.2565 -0.1040 -0.1822
 4580SOL     OW15180   1.882   6.458   3.736  0.1881 -0.2766 -0.2266
 4580SOL    HW115181   1.843   6.545   3.751  0.2801  0.3604 -3.0623
 4580SOL    HW215182   1.811   6.408   3.695  0.2885 -1.4170  0.9647
 4581SOL     OW15183   6.750   7.343   2.667 -0.2565  0.3932  0.0148
 4581SOL    HW115184   6.833   7.344   2.715 -0.7261  1.5929  0.8207
 4581SOL    HW215185   6.735   7.250   2.648  1.4075  0.1838 -0.4080
 4582SOL     OW15186   7.819   6.751   4.315 -0.9957  0.5302 -0.1093
 4582SOL    HW115187   7.818   6.747   4.219 -0.3774 -0.9293 -0.0784
 4582SOL    HW215188   7.761   6.680   4.342  1.3522 -1.2668  0.5684
 4583SOL     OW15189   7.147   1.776   4.276  0.0532  0.1162  0.2352
 4583SOL    HW115190   7.090   1.785   4.353  0.2544  1.0907  0.2796
 4583SOL    HW215191   7.183   1.863   4.263  1.0230 -0.3422 -0.1961
 4584SOL     OW15192   1.588   7.916   3.820  0.2403 -0.0698  0.1089
 4584SOL    HW115193   1.558   7.952   3.903  1.0671 -1.0383  0.8635
 4584SOL    HW215194   1.585   7.989   3.758 -0.7238  0.5702  0.8970
 4585SOL     OW15195   0.185   6.245   2.969 -0.3233  0.1260 -0.5654
 4585SOL    HW115196   0.171   6.179   3.037 -0.8720 -0.8222 -1.5439
 4585SOL    HW215197   0.272   6.226   2.935 -0.3458  0.1184 -0.6192
 4586SOL     OW15198   6.500   6.517   4.751 -0.2706  0.5336 -0.3116
 4586SOL    HW115199   6.497   6.443   4.811 -1.0827  1.7675  1.2611
 4586SOL    HW215200   6.413   6.556   4.756  0.2859  1.8884 -0.6646
 4587SOL     OW15201   2.859   6.677   3.023  0.3606 -0.8725 -0.4722
 4587SOL    HW115202   2.861   6.715   3.111  0.3203 -1.7639 -0.0740
 4587SOL    HW215203   2.930   6.721   2.976  0.4982 -0.5147  0.0581
 4588SOL     OW15204   7.435   6.218   1.291  0.1430 -0.0514 -0.0768
 4588SOL    HW115205   7.418   6.211   1.385 -1.6965 -1.3507 -0.4577
 4588SOL    HW215206   7.477   6.135   1.268  2.2575  0.9659 -0.1445
 4589SOL     OW15207   0.548   6.336   3.408  0.2314 -0.1970  0.8382
 4589SOL    HW115208   0.595   6.334   3.491  1.0217 -0.2944  0.3944
 4589SOL    HW215209   0.565   6.423   3.373 -0.2835 -0.0773  0.8734
 4590SOL     OW15210   1.116   6.330   2.836 -0.2925 -0.0520 -0.1428
 4590SOL    HW115211   1.150   6.398   2.894  0.4134  0.7821 -1.4657
 4590SOL    HW215212   1.083   6.262   2.894  0.8053  0.5380  1.2226
 4591SOL     OW15213   7.672   5.674   5.592 -0.6431 -0.0536 -0.6252
 4591SOL    HW115214   7.579   5.697   5.593 -0.7762 -0.5795 -0.0688
 4591SOL    HW215215   7.717   5.758   5.585 -1.1367  0.3497  0.6600
 4592SOL     OW15216   2.383   7.723   3.833  0.3393  0.6050 -0.3052
 4592SOL    HW115217   2.404   7.633   3.807 -2.4469 -0.6139  1.2047
 4592SOL    HW215218   2.399   7.726   3.927  2.5130  2.4659 -0.6459
 4593SOL     OW15219   0.726   6.961   3.913  0.0259 -0.3087  0.1134
 4593SOL    HW115220   0.683   6.934   3.994  2.6141 -1.0236  1.3706
 4593SOL    HW215221   0.764   6.881   3.877  0.8388  0.3493 -0.5650
 4594SOL     OW15222   7.571   5.842   4.448 -0.8310 -0.1594  1.0097
 4594SOL    HW115223   7.630   5.779   4.408 -1.5634 -0.6333  0.6387
 4594SOL    HW215224   7.513   5.788   4.503 -1.7223  0.1210  0.3807
 4595SOL     OW15225   7.756   6.268   2.451  0.1286 -0.0462 -0.2771
 4595SOL    HW115226   7.813   6.220   2.391 -0.5013  0.5821 -1.4075
 4595SOL    HW215227   7.681   6.294   2.398  0.8612  3.0251 -0.0030
 4596SOL     OW15228   1.764   0.017   2.913  0.8583 -0.0760  0.5111
 4596SOL    HW115229   1.835   0.034   2.974 -0.8546  0.6412  2.4209
 4596SOL    HW215230   1.706  -0.043   2.960 -2.0044  2.7320  0.9479
 4597SOL     OW15231   1.753   1.601   4.295 -0.3104  0.0498  0.1148
 4597SOL    HW115232   1.696   1.618   4.370 -1.7150  0.5387 -1.0266
 4597SOL    HW215233   1.836   1.642   4.318 -0.3967 -0.6608  1.8047
 4598SOL     OW15234   2.444   6.023   3.821 -0.1649  0.2664 -0.4602
 4598SOL    HW115235   2.402   5.966   3.885 -0.3593  0.5379 -0.3430
 4598SOL    HW215236   2.537   6.022   3.845 -0.1563 -0.0478 -0.4974
 4599SOL     OW15237   0.930   7.957   3.575 -0.4551 -0.0362  0.2498
 4599SOL    HW115238   0.922   8.012   3.497 -4.8086 -1.1512 -0.3354
 4599SOL    HW215239   0.970   8.015   3.641 -0.3342  2.2165 -1.6677
 4600SOL     OW15240   7.663   7.098   4.143 -0.2631  0.2852 -0.3152
 4600SOL    HW115241   7.610   7.119   4.219 -0.0306 -1.0862  0.2596
 4600SOL    HW215242   7.638   7.162   4.077 -3.5170 -0.9731 -0.4644
 4601SOL     OW15243   3.044   6.222   1.948  0.1769  0.3349 -0.7569
 4601SOL    HW115244   3.061   6.291   1.884 -1.1074  2.2859  0.8706
 4601SOL    HW215245   2.953   6.196   1.932  0.0559  0.3779 -0.1861
 4602SOL     OW15246   1.564   7.533   3.562  0.0580  0.5306 -0.4042
 4602SOL    HW115247   1.590   7.613   3.606  0.9181  1.0624 -1.8209
 4602SOL    HW215248   1.578   7.551   3.469  0.3181 -1.2672 -0.7484
 4603SOL     OW15249   7.300   0.901   3.884 -0.2423  0.2225  0.2513
 4603SOL    HW115250   7.277   0.862   3.800 -0.4949  0.8767  0.0127
 4603SOL    HW215251   7.247   0.981   3.889 -0.4424  0.0455  1.1550
 4604SOL     OW15252   0.455   6.896   2.617  0.5087 -0.0819  0.1594
 4604SOL    HW115253   0.545   6.893   2.652  0.6263  1.3599  0.0057
 4604SOL    HW215254   0.448   6.815   2.566  1.8754 -0.0071 -0.2007
 4605SOL     OW15255   0.002   7.067   2.627  0.6998 -0.3674 -0.3900
 4605SOL    HW115256   0.067   7.000   2.647  0.7913 -0.1697 -0.0193
 4605SOL    HW215257   0.030   7.103   2.542  0.3385 -1.1710 -0.8645
 4606SOL     OW15258   1.062   6.385   2.134  0.2027  0.0200 -0.0023
 4606SOL    HW115259   1.082   6.469   2.175 -0.1412 -0.4330  1.1332
 4606SOL    HW215260   1.082   6.320   2.202  0.5047 -0.8222 -0.8763
 4607SOL     OW15261   1.517   7.329   2.430 -0.4059 -0.1289  0.0570
 4607SOL    HW115262   1.483   7.405   2.384  0.4020  0.1207 -0.1394
 4607SOL    HW215263   1.592   7.362   2.479  0.3493 -0.9123 -0.5372
 4608SOL     OW15264   0.806   4.826   4.523 -0.0536  0.2533 -0.2849
 4608SOL    HW115265   0.837   4.762   4.587 -0.3451 -0.3445 -0.7377
 4608SOL    HW215266   0.724   4.859   4.559 -2.4046 -2.9769 -2.1206
 4609SOL     OW15267   0.427   7.193   2.879 -0.3226  0.6166  0.0678
 4609SOL    HW115268   0.486   7.119   2.890  0.8571  1.6434  1.0504
 4609SOL    HW215269   0.467   7.263   2.932 -2.1733  1.5015  0.3709
 4610SOL     OW15270   1.775   6.703   1.717  0.0982 -0.4419 -0.2272
 4610SOL    HW115271   1.854   6.724   1.669  0.0134 -0.4084 -0.3540
 4610SOL    HW215272   1.752   6.615   1.687 -0.1801 -0.2606 -0.5532
 4611SOL     OW15273   6.573   6.150   3.577  0.0660 -0.2121  0.2439
 4611SOL    HW115274   6.495   6.203   3.565  0.3314  0.0815 -0.2188
 4611SOL    HW215275   6.636   6.186   3.515  0.8155  0.0296  1.1192
 4612SOL     OW15276   6.842   5.876   2.203  0.0011 -0.0902 -0.1260
 4612SOL    HW115277   6.838   5.854   2.110  0.4248 -0.7944  0.0155
 4612SOL    HW215278   6.812   5.966   2.208 -1.3631 -0.4830 -0.7849
 4613SOL     OW15279   0.738   7.016   1.364  0.1486  0.2042  0.2196
 4613SOL    HW115280   0.813   6.989   1.311  0.3489  1.4272 -0.1512
 4613SOL    HW215281   0.735   7.111   1.355 -0.6791  0.3011  1.2678
 4614SOL     OW15282   1.381   0.229   4.550 -0.3788 -0.5137 -0.0121
 4614SOL    HW115283   1.476   0.219   4.555 -0.0249  2.6490  2.7958
 4614SOL    HW215284   1.368   0.292   4.480 -0.4315 -0.8167 -0.2799
 4615SOL     OW15285   0.996   5.426   2.842  0.2131  0.5677  0.0277
 4615SOL    HW115286   0.952   5.494   2.893 -0.4315  1.2059 -1.3474
 4615SOL    HW215287   0.979   5.449   2.751  1.6755 -0.3365 -0.5040
 4616SOL     OW15288   2.114   6.922   2.433  0.2958 -0.7084 -0.6314
 4616SOL    HW115289   2.127   6.999   2.487  2.7578 -1.4268 -0.0691
 4616SOL    HW215290   2.129   6.848   2.492  2.0879 -1.5314 -2.0369
 4617SOL     OW15291   2.922   4.564   2.666 -0.5163 -0.8295 -0.7212
 4617SOL    HW115292   2.983   4.500   2.702 -0.9446 -1.3143 -0.8430
 4617SOL    HW215293   2.846   4.512   2.638 -0.8692 -0.2715 -0.8253
 4618SOL     OW15294   1.950   6.549   2.058 -0.0860  0.0590  0.3590
 4618SOL    HW115295   1.960   6.641   2.033 -0.6173 -0.9088 -4.2425
 4618SOL    HW215296   1.855   6.536   2.063 -0.0277 -0.4143  0.2340
 4619SOL     OW15297   7.199   5.875   2.429  0.2882  0.4470 -0.2586
 4619SOL    HW115298   7.293   5.858   2.439  0.0171 -0.3725  1.3482
 4619SOL    HW215299   7.181   5.946   2.491 -0.2019  0.3896 -0.3321
 4620SOL     OW15300   1.650   6.139   2.187  0.3963 -0.3621  0.2001
 4620SOL    HW115301   1.688   6.085   2.118 -0.8846 -0.0353 -0.8006
 4620SOL    HW215302   1.557   6.145   2.165  0.0335  0.1088  1.7248
 4621SOL     OW15303   0.968   7.304   4.666  0.3183 -0.1989  0.3912
 4621SOL    HW115304   0.895   7.365   4.676  1.7631  1.3376  2.3068
 4621SOL    HW215305   0.983   7.300   4.572 -1.0910  0.8716  0.0922
 4622SOL     OW15306   0.424   4.613   2.738 -0.1334 -0.0650 -0.3187
 4622SOL    HW115307   0.369   4.584   2.666 -0.1633 -3.0926  0.8082
 4622SOL    HW215308   0.466   4.533   2.771  0.5554  1.3074  2.4644
 4623SOL     OW15309   6.920   5.404   2.411 -0.1185 -0.1771  0.2262
 4623SOL    HW115310   6.957   5.340   2.472 -1.8136 -1.6720 -0.2195
 4623SOL    HW215311   6.985   5.474   2.407  0.1482 -0.0963  3.5641
 4624SOL     OW15312   2.167   6.731   2.618  0.2016  0.4249  0.7131
 4624SOL    HW115313   2.238   6.793   2.632  1.3711 -0.4495 -0.8575
 4624SOL    HW215314   2.202   6.670   2.552 -2.4324  0.6608 -1.0544
 4625SOL     OW15315   0.095   4.946   2.241 -0.1246  0.0391  1.3567
 4625SOL    HW115316   0.189   4.964   2.242  0.0574 -0.6453 -0.2119
 4625SOL    HW215317   0.083   4.886   2.167 -1.7817  0.0188  1.6068
 4626SOL     OW15318   0.777   6.845   3.125  0.3639  0.0190  0.2021
 4626SOL    HW115319   0.794   6.820   3.215  0.3066  0.2960  0.2911
 4626SOL    HW215320   0.839   6.793   3.073  0.5026 -0.0235  0.4098
 4627SOL     OW15321   7.786   7.122   3.021 -0.1667 -0.6239  0.2060
 4627SOL    HW115322   7.698   7.087   3.036 -0.0472 -0.5977  0.9931
 4627SOL    HW215323   7.844   7.049   3.041 -0.0173 -0.8085 -0.8378
 4628SOL     OW15324   1.179   0.718   2.087  0.4745  0.1031  0.5767
 4628SOL    HW115325   1.214   0.732   1.999 -0.1514  2.2699  0.6232
 4628SOL    HW215326   1.085   0.705   2.073  0.0706  2.2979  1.0204
 4629SOL     OW15327   7.930   5.048   3.236 -0.1223 -0.1613  0.2918
 4629SOL    HW115328   7.934   5.131   3.189 -0.1872 -0.0596  0.4639
 4629SOL    HW215329   7.869   4.994   3.186 -1.0776  0.3465  0.8757
 4630SOL     OW15330   2.536   6.698   3.360  0.3798  0.2038 -0.1915
 4630SOL    HW115331   2.513   6.662   3.446  0.1959  1.5392  0.3532
 4630SOL    HW215332   2.615   6.651   3.334  0.7220  0.1189  0.9559
 4631SOL     OW15333   1.074   0.478   4.366  0.7624  0.0481  0.4791
 4631SOL    HW115334   1.048   0.493   4.456  0.4111 -0.5756  0.4885
 4631SOL    HW215335   1.169   0.465   4.370  0.6061 -1.1456  0.9349
 4632SOL     OW15336   1.553   6.861   2.976  0.1734 -0.0611 -0.3802
 4632SOL    HW115337   1.507   6.944   2.991  0.7253  0.1219  0.3343
 4632SOL    HW215338   1.551   6.817   3.061  0.5155 -0.4665 -0.5810
 4633SOL     OW15339   1.353   5.136   2.345  0.4633 -0.0889  0.0028
 4633SOL    HW115340   1.447   5.154   2.339  0.2251  1.6589  0.9070
 4633SOL    HW215341   1.348   5.049   2.386  1.6754 -0.1567  0.0642
 4634SOL     OW15342   0.754   7.433   4.393  0.3685  0.1712  0.3488
 4634SOL    HW115343   0.712   7.469   4.315  0.3237 -1.5310 -0.4722
 4634SOL    HW215344   0.684   7.389   4.441  0.7581 -0.6659  0.1842
 4635SOL     OW15345   0.866   4.846   4.049 -0.5178 -0.0303 -0.4870
 4635SOL    HW115346   0.827   4.891   3.973 -2.4888  0.3623  0.6737
 4635SOL    HW215347   0.798   4.784   4.077 -0.8279  1.3620  2.2309
 4636SOL     OW15348   2.539   4.743   3.404  0.6437 -0.3334 -0.5498
 4636SOL    HW115349   2.611   4.709   3.350  0.4363 -4.1388  1.2531
 4636SOL    HW215350   2.539   4.687   3.482 -1.8573  2.0637  1.3515
 4637SOL     OW15351   7.571   7.028   0.570  0.0664  0.3271  0.4696
 4637SOL    HW115352   7.527   7.112   0.582 -0.5504  0.0018  0.5083
 4637SOL    HW215353   7.569   7.013   0.475 -1.5228 -0.5332  0.6087
 4638SOL     OW15354   0.193   5.751   2.537  0.2401 -0.1622 -0.4515
 4638SOL    HW115355   0.101   5.727   2.529 -0.0613  0.8691 -0.2011
 4638SOL    HW215356   0.220   5.772   2.447 -0.3279  1.4221 -0.2975
 4639SOL     OW15357   0.152   5.088   2.899 -0.2363 -0.3924 -0.3643
 4639SOL    HW115358   0.087   5.040   2.951  0.1972  0.9667  1.5806
 4639SOL    HW215359   0.223   5.106   2.961  0.5902  0.8168 -1.6074
 4640SOL     OW15360   1.346   5.981   1.494 -0.4081  0.1429 -0.1404
 4640SOL    HW115361   1.259   5.997   1.531 -0.5707 -2.9836  1.1140
 4640SOL    HW215362   1.395   6.061   1.512 -2.9339  1.9404 -0.7410
 4641SOL     OW15363   2.475   0.137   2.258  0.3386  0.1325  0.3545
 4641SOL    HW115364   2.387   0.156   2.291 -0.1898 -1.4775 -0.0298
 4641SOL    HW215365   2.492   0.205   2.193 -0.3361  0.8676  0.9438
 4642SOL     OW15366   6.214   6.014   1.737 -0.2970  0.1767  0.3844
 4642SOL    HW115367   6.254   5.951   1.676 -0.8542 -1.1418  1.3240
 4642SOL    HW215368   6.218   6.098   1.691  1.1581 -0.3978 -0.6006
 4643SOL     OW15369   2.434   6.094   3.191 -0.4725 -0.3440  0.2925
 4643SOL    HW115370   2.497   6.165   3.199 -1.0760  0.1677  0.6717
 4643SOL    HW215371   2.375   6.107   3.266 -0.1442 -1.6967  0.8109
 4644SOL     OW15372   3.613   5.572   2.043 -0.4447 -0.5270 -0.0686
 4644SOL    HW115373   3.594   5.488   2.084 -0.8287 -0.7215 -0.6329
 4644SOL    HW215374   3.603   5.556   1.949 -2.6618  0.6525 -0.1142
 4645SOL     OW15375   0.476   6.102   3.120  0.1725 -0.0506 -0.2197
 4645SOL    HW115376   0.512   6.190   3.108  2.4087 -1.1278 -1.9260
 4645SOL    HW215377   0.472   6.065   3.032 -1.2809 -1.5067  0.4015
 4646SOL     OW15378   2.562   7.579   2.020  0.5103 -0.9384 -0.1015
 4646SOL    HW115379   2.530   7.646   2.081 -2.9273 -1.4305 -1.1192
 4646SOL    HW215380   2.513   7.500   2.043  2.4864 -2.4025 -0.6705
 4647SOL     OW15381   0.320   5.615   4.013  0.0254  0.2841  0.0741
 4647SOL    HW115382   0.275   5.608   3.929 -0.1009  1.1029  0.0600
 4647SOL    HW215383   0.342   5.708   4.020 -1.4444  0.5704  1.6938
 4648SOL     OW15384   0.145   6.604   1.502 -0.4610  0.1596 -0.4504
 4648SOL    HW115385   0.167   6.562   1.586 -0.4196 -1.2751 -1.1419
 4648SOL    HW215386   0.062   6.648   1.519 -0.8747 -0.7968  0.1458
 4649SOL     OW15387   2.642   5.369   3.130 -0.0274  0.0270  0.2396
 4649SOL    HW115388   2.714   5.431   3.142 -0.2221  0.2775  0.1202
 4649SOL    HW215389   2.668   5.292   3.180  0.9074 -0.3716 -0.8025
 4650SOL     OW15390   7.422   6.786   3.119 -0.3296 -0.1651  0.2521
 4650SOL    HW115391   7.402   6.848   3.189 -0.0153 -0.5265  0.6655
 4650SOL    HW215392   7.381   6.825   3.041  0.2250  0.7813  0.4128
 4651SOL     OW15393   7.503   7.148   2.862 -0.7464 -0.1065 -0.5394
 4651SOL    HW115394   7.445   7.204   2.810  0.9190  3.0720  0.7146
 4651SOL    HW215395   7.581   7.138   2.809 -0.6521 -0.4062 -0.3475
 4652SOL     OW15396   7.290   7.942   4.228  0.3279 -0.2572  0.0700
 4652SOL    HW115397   7.286   7.965   4.135  1.1960 -1.7698 -0.3886
 4652SOL    HW215398   7.334   7.856   4.229 -0.7709 -0.8540  1.7819
 4653SOL     OW15399   0.805   4.751   2.206 -0.3360 -0.3996  0.5762
 4653SOL    HW115400   0.797   4.780   2.297 -0.6270  2.8931 -0.3360
 4653SOL    HW215401   0.744   4.678   2.198  1.0660 -2.0350  3.3989
 4654SOL     OW15402   1.427   4.875   2.435 -0.0035 -0.2075  0.3520
 4654SOL    HW115403   1.367   4.906   2.503 -0.5069  1.4776 -0.7893
 4654SOL    HW215404   1.412   4.780   2.431 -1.5832 -0.0166  1.0541
 4655SOL     OW15405   1.702   4.226   2.049  0.2798 -0.2651 -1.1880
 4655SOL    HW115406   1.739   4.139   2.059 -0.8282 -0.7927 -1.4973
 4655SOL    HW215407   1.730   4.255   1.962  0.6931 -0.2802 -1.0631
 4656SOL     OW15408   0.680   0.134   3.820 -0.0628 -0.1988 -0.2049
 4656SOL    HW115409   0.756   0.077   3.813 -0.9803 -1.4265 -0.5226
 4656SOL    HW215410   0.619   0.087   3.877 -0.7280  0.6094 -0.2198
 4657SOL     OW15411   1.782   6.759   2.890  0.4066  0.3565  0.1970
 4657SOL    HW115412   1.695   6.793   2.911 -1.1939 -2.7226 -0.8922
 4657SOL    HW215413   1.824   6.744   2.975 -1.8280 -2.0406  0.9781
 4658SOL     OW15414   0.311   0.105   2.582 -0.2326  0.1088 -0.3902
 4658SOL    HW115415   0.248   0.174   2.602  0.0056  0.3303 -0.4030
 4658SOL    HW215416   0.395   0.138   2.614 -0.3850 -0.8592  1.0950
 4659SOL     OW15417   0.255   5.513   4.773 -0.3416  0.4381  0.3754
 4659SOL    HW115418   0.309   5.591   4.774  0.9543 -0.2332  4.8438
 4659SOL    HW215419   0.166   5.545   4.791 -0.7589  1.1159 -2.3968
 4660SOL     OW15420   0.890   5.453   4.572  0.2469 -0.2706 -0.2611
 4660SOL    HW115421   0.931   5.538   4.556 -0.1956  0.5099  2.2816
 4660SOL    HW215422   0.963   5.391   4.572  0.7109  0.2606 -1.0888
 4661SOL     OW15423   2.079   7.119   7.703  0.3008  0.5592  0.2186
 4661SOL    HW115424   2.105   7.075   7.623 -0.9756 -1.2435  0.7279
 4661SOL    HW215425   2.024   7.192   7.674  0.5650  0.4473 -0.5676
 4662SOL     OW15426   0.009   7.948   5.155  0.3619 -0.0038  0.2715
 4662SOL    HW115427  -0.076   7.944   5.199 -0.0925 -2.4771 -0.6657
 4662SOL    HW215428   0.011   8.035   5.115 -1.4367  0.3472  0.8568
 4663SOL     OW15429   2.407   4.725   3.796 -0.1651  0.0366  0.3051
 4663SOL    HW115430   2.314   4.705   3.794 -0.3756  0.9323  0.7354
 4663SOL    HW215431   2.448   4.656   3.743 -1.0558 -0.4086  0.1901
 4664SOL     OW15432   2.160   7.426   4.486 -0.2553  0.7659  0.3363
 4664SOL    HW115433   2.134   7.387   4.569  0.2699  1.1714  0.6976
 4664SOL    HW215434   2.140   7.359   4.421  0.3940 -0.0095  0.9145
 4665SOL     OW15435   0.632   5.977   2.861 -0.4436  0.1783  0.1739
 4665SOL    HW115436   0.697   5.930   2.808 -0.3560  0.9146 -0.3773
 4665SOL    HW215437   0.570   5.909   2.888 -0.1004 -0.3248 -0.2866
 4666SOL     OW15438   2.857   5.605   4.425  0.0831 -0.4781 -0.1826
 4666SOL    HW115439   2.806   5.524   4.437  0.0639 -0.4445 -0.0303
 4666SOL    HW215440   2.917   5.606   4.499 -1.1264  0.5463  0.8384
 4667SOL     OW15441   7.739   6.405   3.359 -0.1380 -0.2712 -0.1052
 4667SOL    HW115442   7.751   6.493   3.394  0.5899 -0.6943  0.7372
 4667SOL    HW215443   7.711   6.419   3.268  0.0334  0.8263  0.0010
 4668SOL     OW15444   0.111   7.569   5.646 -0.4285 -0.0318 -0.2444
 4668SOL    HW115445   0.070   7.647   5.608 -0.9078  0.1786  0.6668
 4668SOL    HW215446   0.039   7.505   5.652 -0.5037  0.1470  0.8516
 4669SOL     OW15447   7.438   7.788   6.198  0.1189  0.2466 -0.2473
 4669SOL    HW115448   7.469   7.782   6.107 -0.4408 -0.0070 -0.4257
 4669SOL    HW215449   7.501   7.846   6.241  1.7943 -1.5044 -0.1989
 4670SOL     OW15450   2.245   5.407   5.026  0.9005  0.2253  0.2672
 4670SOL    HW115451   2.266   5.423   4.934  0.0558 -3.6061 -0.7591
 4670SOL    HW215452   2.329   5.388   5.067  1.1231  0.4796 -0.0643
 4671SOL     OW15453   0.368   6.134   5.457 -0.0194 -0.4161  0.0404
 4671SOL    HW115454   0.418   6.059   5.491  1.7290  1.1188  1.1376
 4671SOL    HW215455   0.436   6.198   5.434 -1.4588  1.0774 -0.1987
 4672SOL     OW15456   0.498   5.631   3.710 -0.2188  0.1963  0.5027
 4672SOL    HW115457   0.521   5.649   3.619 -2.3578  1.1538  0.0766
 4672SOL    HW215458   0.547   5.697   3.760  0.0667  0.4276 -0.0681
 4673SOL     OW15459   7.452   0.731   6.998 -0.6881  0.7769  0.1300
 4673SOL    HW115460   7.410   0.779   7.070 -0.5439  2.2818 -0.7405
 4673SOL    HW215461   7.544   0.758   7.002 -0.4084 -0.1587  0.1752
 4674SOL     OW15462   1.584   7.520   6.143  0.2748  0.0058 -0.4311
 4674SOL    HW115463   1.575   7.565   6.060  0.5424  1.2511  0.1948
 4674SOL    HW215464   1.668   7.475   6.137  0.0004 -0.4316 -1.0632
 4675SOL     OW15465   0.100   1.073   4.512 -0.2051 -0.0094  0.1935
 4675SOL    HW115466   0.053   1.040   4.588 -0.3300  0.4820  0.3377
 4675SOL    HW215467   0.121   0.996   4.460 -1.0594 -0.2481  0.1926
 4676SOL     OW15468   0.700   0.424   4.453 -0.0942 -0.2485 -0.6275
 4676SOL    HW115469   0.748   0.485   4.509 -0.8476  0.8307 -1.1198
 4676SOL    HW215470   0.690   0.471   4.370 -1.6412 -0.5934 -0.6705
 4677SOL     OW15471   6.817   0.889   5.583 -0.2305 -0.1796 -0.2147
 4677SOL    HW115472   6.766   0.965   5.610  2.1852  1.1490  0.8913
 4677SOL    HW215473   6.865   0.918   5.505 -0.2304 -1.0093 -0.5427
 4678SOL     OW15474   0.818   6.837   4.514 -0.0604  0.2535  0.4762
 4678SOL    HW115475   0.910   6.862   4.505 -0.5482  1.7880 -0.5478
 4678SOL    HW215476   0.782   6.899   4.576 -0.6038  0.2288  0.1913
 4679SOL     OW15477   0.258   5.190   4.921 -0.1871 -0.2705  0.0033
 4679SOL    HW115478   0.247   5.242   5.001  1.8272 -0.4673  0.4616
 4679SOL    HW215479   0.188   5.220   4.863  1.1786  3.4560 -0.0099
 4680SOL     OW15480   6.580   6.786   4.427  0.7392 -0.1462 -0.1488
 4680SOL    HW115481   6.560   6.863   4.480  0.6629 -0.9868  1.1064
 4680SOL    HW215482   6.497   6.762   4.386  0.9117  0.8125 -1.0807
 4681SOL     OW15483   2.350   5.624   3.926  0.2636 -0.2475  0.2041
 4681SOL    HW115484   2.444   5.610   3.937  0.9312  1.0030 -2.8580
 4681SOL    HW215485   2.336   5.715   3.951 -0.1107 -0.3650  0.4354
 4682SOL     OW15486   2.397   7.194   3.258  0.1833 -0.0094 -0.2209
 4682SOL    HW115487   2.329   7.141   3.299 -0.0427 -0.1217 -0.7267
 4682SOL    HW215488   2.390   7.173   3.164  1.1702 -0.3069 -0.2355
 4683SOL     OW15489   3.191   0.282   2.822  0.9345  0.1891 -0.3062
 4683SOL    HW115490   3.217   0.342   2.752  0.6747 -0.1488 -0.6962
 4683SOL    HW215491   3.231   0.198   2.798  0.7614  0.0478 -0.1063
 4684SOL     OW15492   1.216   6.866   4.398 -0.0427 -0.3234 -0.5140
 4684SOL    HW115493   1.154   6.912   4.455 -2.5684 -0.7076 -2.7364
 4684SOL    HW215494   1.165   6.795   4.359  1.4580 -0.0055 -3.3114
 4685SOL     OW15495   0.418   6.168   6.603  0.3204  0.1311  0.4173
 4685SOL    HW115496   0.323   6.162   6.616  0.5302  1.2060  3.2453
 4685SOL    HW215497   0.448   6.077   6.604 -0.7986 -0.3876 -2.7145
 4686SOL     OW15498   0.932   5.724   4.552 -0.6241  0.2312 -0.0844
 4686SOL    HW115499   0.900   5.729   4.642 -0.9552 -0.0984 -0.1813
 4686SOL    HW215500   0.934   5.815   4.522 -1.3126  0.2745 -0.0152
 4687SOL     OW15501   1.236   4.420   5.859 -0.2034 -0.2004 -0.0131
 4687SOL    HW115502   1.313   4.394   5.809 -0.1553  0.0844 -0.0918
 4687SOL    HW215503   1.262   4.408   5.951 -0.1905 -0.4457 -0.0488
 4688SOL     OW15504   1.218   7.163   3.579 -0.0680 -0.2612 -0.4639
 4688SOL    HW115505   1.283   7.101   3.611 -0.0189  0.1890  0.3246
 4688SOL    HW215506   1.261   7.248   3.585 -1.0348  0.1623  0.9696
 4689SOL     OW15507   7.038   4.330   5.433 -0.0065  0.1415  0.4773
 4689SOL    HW115508   7.044   4.411   5.482 -1.9276  0.9704 -0.5484
 4689SOL    HW215509   7.077   4.349   5.348 -2.2951  0.7272 -0.5286
 4690SOL     OW15510   1.850   5.002   3.989  0.6975 -0.0143 -0.1180
 4690SOL    HW115511   1.927   5.056   3.970  0.8983 -0.4487 -0.5422
 4690SOL    HW215512   1.778   5.047   3.945  0.9275 -0.2851 -0.7720
 4691SOL     OW15513   2.709   6.465   5.475 -0.1928  0.3394 -0.2192
 4691SOL    HW115514   2.616   6.485   5.486 -0.2495  0.5543 -1.0018
 4691SOL    HW215515   2.733   6.418   5.554 -0.5996  1.6107  0.6900
 4692SOL     OW15516   0.432   6.801   5.879 -0.7322 -0.7180  0.0711
 4692SOL    HW115517   0.508   6.744   5.870  0.2866  0.4656  0.7477
 4692SOL    HW215518   0.367   6.747   5.924  0.5759 -1.0603  1.6582
 4693SOL     OW15519   0.542   7.160   4.721  0.1940  0.2253 -0.1832
 4693SOL    HW115520   0.560   7.066   4.716  0.5903  0.3024 -0.2476
 4693SOL    HW215521   0.590   7.189   4.798 -1.2535  0.0849  0.7873
 4694SOL     OW15522   3.800   7.234   4.051  0.3660 -0.0070  0.4945
 4694SOL    HW115523   3.865   7.304   4.058 -1.7116  1.9577  1.5175
 4694SOL    HW215524   3.771   7.218   4.141  0.0555 -1.4724  0.1691
 4695SOL     OW15525   0.880   6.387   4.403 -0.3793 -0.0195  0.0770
 4695SOL    HW115526   0.848   6.297   4.392 -0.8627  0.3427 -2.0062
 4695SOL    HW215527   0.823   6.425   4.469  0.3319 -1.4358  1.5894
 4696SOL     OW15528   0.354   6.566   5.081 -0.0862 -0.4352 -0.2818
 4696SOL    HW115529   0.360   6.471   5.085  2.7379 -0.3429 -0.3256
 4696SOL    HW215530   0.296   6.590   5.153  0.0536 -2.1179  0.4353
 4697SOL     OW15531   2.556   7.525   2.294  0.0820  0.0915  0.4726
 4697SOL    HW115532   2.636   7.569   2.322 -0.2499 -0.1164  1.8178
 4697SOL    HW215533   2.581   7.433   2.286  0.9913  0.4946 -3.1429
 4698SOL     OW15534   0.716   6.637   6.502 -0.6241  0.1673  0.1523
 4698SOL    HW115535   0.633   6.639   6.454 -1.1413  1.5972  1.0112
 4698SOL    HW215536   0.700   6.576   6.574 -0.3178 -0.9081 -0.6733
 4699SOL     OW15537   2.096   3.880   7.334  0.4792 -0.1200 -0.1483
 4699SOL    HW115538   2.129   3.822   7.403  0.1377  0.0556  0.1716
 4699SOL    HW215539   2.050   3.822   7.273 -0.2045 -0.1501  0.3782
 4700SOL     OW15540   2.290   6.413   5.206  0.2862 -0.3747 -0.2786
 4700SOL    HW115541   2.275   6.418   5.112  0.1093 -0.2349 -0.2443
 4700SOL    HW215542   2.255   6.496   5.240  0.1329 -0.5280 -0.0611
 4701SOL     OW15543   1.656   5.684   3.142 -0.1275 -0.2655  0.0754
 4701SOL    HW115544   1.645   5.614   3.079 -1.5708 -0.7238  0.7941
 4701SOL    HW215545   1.579   5.678   3.198  1.1071  0.1048  1.9008
 4702SOL     OW15546   0.467   6.688   3.720  0.2397  0.3177 -0.1519
 4702SOL    HW115547   0.408   6.618   3.691  1.5179 -0.6118 -0.6069
 4702SOL    HW215548   0.437   6.710   3.808 -0.0149 -1.0109  0.1131
 4703SOL     OW15549   0.088   4.177   4.941  0.9010 -0.6029  0.5024
 4703SOL    HW115550   0.092   4.270   4.917 -0.3677 -0.6701 -0.0432
 4703SOL    HW215551   0.171   4.161   4.986  2.5734 -0.0174 -2.1878
 4704SOL     OW15552   0.486   6.080   4.787 -0.1261  0.1784  0.1196
 4704SOL    HW115553   0.414   6.028   4.751  0.8962 -1.1788 -0.0788
 4704SOL    HW215554   0.446   6.163   4.813 -1.8413 -0.7031  0.4573
 4705SOL     OW15555   2.585   5.477   3.425  0.0943  0.2996  0.2614
 4705SOL    HW115556   2.661   5.432   3.462 -0.3167 -1.1973 -0.6605
 4705SOL    HW215557   2.557   5.536   3.495  2.1430  0.9785  0.5868
 4706SOL     OW15558   0.176   5.303   5.135 -0.2326 -0.0200 -0.3439
 4706SOL    HW115559   0.211   5.340   5.216 -1.3271 -0.7605  0.4935
 4706SOL    HW215560   0.095   5.351   5.119 -0.3074 -0.2592 -0.7036
 4707SOL     OW15561   1.024   7.023   2.744 -0.2785  0.4240 -0.2588
 4707SOL    HW115562   1.119   7.021   2.748 -0.3332 -0.0560  1.8057
 4707SOL    HW215563   0.995   7.014   2.835 -2.2936  1.3032 -0.7427
 4708SOL     OW15564   7.096   5.113   4.433 -0.0623  0.0591  0.5260
 4708SOL    HW115565   7.095   5.051   4.361  0.7386  0.7276 -0.0715
 4708SOL    HW215566   7.012   5.100   4.477 -1.5321  1.1458 -1.8108
 4709SOL     OW15567   1.329   0.121   5.288 -0.2950  0.2730 -0.5177
 4709SOL    HW115568   1.305   0.038   5.246 -0.2228  0.5135 -1.0357
 4709SOL    HW215569   1.411   0.146   5.245 -0.7596  1.0437 -0.9651
 4710SOL     OW15570   1.141   6.026   2.530 -0.6921 -0.8636 -0.2895
 4710SOL    HW115571   1.118   6.073   2.450  0.8024  0.4405  0.0016
 4710SOL    HW215572   1.062   5.977   2.552 -1.0584 -1.5027 -2.7056
 4711SOL     OW15573   2.976   7.338   4.405  0.9380 -0.5723 -0.1868
 4711SOL    HW115574   2.925   7.401   4.455  1.3500 -0.4901  0.1419
 4711SOL    HW215575   2.942   7.344   4.316  0.0230 -0.8971  0.1278
 4712SOL     OW15576   3.179   6.220   7.322  0.1956  0.2657  0.1260
 4712SOL    HW115577   3.263   6.192   7.359  1.1612 -1.2931 -2.9389
 4712SOL    HW215578   3.183   6.316   7.322  2.2397  0.2264 -0.4206
 4713SOL     OW15579   0.126   0.285   4.369  0.4729 -0.6489 -0.5149
 4713SOL    HW115580   0.077   0.356   4.328  0.6149  0.4338  1.0877
 4713SOL    HW215581   0.162   0.324   4.449  0.8037 -2.4538  0.2621
 4714SOL     OW15582   1.242   7.067   3.274  0.6887 -0.6414  0.0672
 4714SOL    HW115583   1.279   7.147   3.311  2.3290 -0.6127 -1.4837
 4714SOL    HW215584   1.291   6.996   3.317  0.3579 -0.7522  0.2663
 4715SOL     OW15585   0.296   0.349   4.737  0.2688  0.4298  0.3775
 4715SOL    HW115586   0.335   0.363   4.651  2.2388  0.8095  1.2853
 4715SOL    HW215587   0.236   0.423   4.748 -0.5811 -0.0263 -0.9406
 4716SOL     OW15588   2.287   7.409   3.998  0.4148 -0.1775  0.2320
 4716SOL    HW115589   2.301   7.321   4.033 -0.7379  0.0302  1.2913
 4716SOL    HW215590   2.247   7.395   3.912  0.4868 -0.6874  0.2772
 4717SOL     OW15591   7.622   6.274   5.923 -0.2204 -0.0325  0.2690
 4717SOL    HW115592   7.553   6.322   5.877 -0.2369  0.1176  0.4478
 4717SOL    HW215593   7.609   6.297   6.015  0.9979  1.1886  0.1601
 4718SOL     OW15594   1.006   6.472   4.053 -0.0345 -0.8161  0.2393
 4718SOL    HW115595   1.081   6.471   4.113 -1.1337 -1.4663  1.6704
 4718SOL    HW215596   1.022   6.399   3.993 -0.2477 -1.9329  1.5021
 4719SOL     OW15597   0.345   0.977   3.253  0.1046 -0.3155 -0.8685
 4719SOL    HW115598   0.326   1.068   3.274  0.0859 -0.5490  0.1819
 4719SOL    HW215599   0.339   0.972   3.158 -0.7087  0.5971 -0.8727
 4720SOL     OW15600   2.579   6.042   2.906  0.0975 -0.4029  0.1570
 4720SOL    HW115601   2.630   6.098   2.965 -0.6366 -0.7404  1.1389
 4720SOL    HW215602   2.572   5.958   2.951 -0.3504 -0.7202 -0.4773
 4721SOL     OW15603   7.462   0.908   6.000 -0.2154  0.2084 -0.3777
 4721SOL    HW115604   7.555   0.887   5.990 -0.1566  0.7322 -1.0094
 4721SOL    HW215605   7.460   0.973   6.070 -0.0057  0.8695 -0.9771
 4722SOL     OW15606   1.827   7.872   5.020  0.1246  0.3089 -0.5036
 4722SOL    HW115607   1.839   7.960   5.057  1.1760  0.7012 -1.6851
 4722SOL    HW215608   1.793   7.888   4.932  0.5492 -0.4466 -0.8175
 4723SOL     OW15609   0.103   6.170   4.624  0.1724 -0.1052 -0.3373
 4723SOL    HW115610   0.121   6.148   4.716 -1.5682  1.2886  0.3985
 4723SOL    HW215611   0.176   6.228   4.599  1.5285 -1.7724 -0.3936
 4724SOL     OW15612   1.285   4.973   6.791  0.6484 -0.2830  0.0377
 4724SOL    HW115613   1.351   5.006   6.730 -1.1338  0.6118 -1.5353
 4724SOL    HW215614   1.320   4.889   6.821  3.0794  0.7550  0.3445
 4725SOL     OW15615   0.588   5.825   4.278  0.5767 -0.1151 -0.0462
 4725SOL    HW115616   0.537   5.821   4.197 -0.4323 -0.1475  0.5757
 4725SOL    HW215617   0.677   5.801   4.251  0.1605 -0.5924 -1.0543
 4726SOL     OW15618   1.442   6.600   4.173 -0.1763  0.4890  0.2443
 4726SOL    HW115619   1.414   6.523   4.124 -1.6006  0.1278  1.5281
 4726SOL    HW215620   1.401   6.590   4.259 -1.0654  3.0283  0.2213
 4727SOL     OW15621   1.644   6.345   4.374 -0.2035 -0.0480 -0.4472
 4727SOL    HW115622   1.703   6.328   4.447 -1.5120 -1.6256  0.3099
 4727SOL    HW215623   1.702   6.349   4.297  1.0690  0.4845  0.5013
 4728SOL     OW15624   2.428   6.579   4.389  0.1344  0.3081  0.2539
 4728SOL    HW115625   2.443   6.660   4.340 -0.7615 -0.2468 -1.0086
 4728SOL    HW215626   2.352   6.598   4.444  0.6473  0.6831  0.8381
 4729SOL     OW15627   1.896   6.045   5.218  0.0086 -0.5669  0.0544
 4729SOL    HW115628   1.837   6.121   5.221 -2.6836 -2.4782 -0.4368
 4729SOL    HW215629   1.931   6.039   5.307 -0.4132  0.7293  0.3344
 4730SOL     OW15630   1.119   0.883   3.543  0.0253  0.7869 -0.0110
 4730SOL    HW115631   1.120   0.966   3.497  2.4172  1.8455  1.7027
 4730SOL    HW215632   1.106   0.907   3.635 -2.9116 -1.0998  0.2176
 4731SOL     OW15633   6.857   4.690   4.693  0.2631 -0.1506  0.2359
 4731SOL    HW115634   6.861   4.703   4.598  0.4169  0.5832  0.3406
 4731SOL    HW215635   6.838   4.597   4.703 -0.5697 -0.0799 -0.5361
 4732SOL     OW15636   1.588   5.940   2.680 -0.6021  0.5834 -0.3482
 4732SOL    HW115637   1.493   5.956   2.679 -0.5945  0.6468 -0.0916
 4732SOL    HW215638   1.597   5.851   2.715 -0.5655  0.6018 -0.3100
 4733SOL     OW15639   0.960   5.182   5.926  0.4544 -0.1249 -0.1060
 4733SOL    HW115640   1.032   5.156   5.868  0.4612  1.8580 -1.0531
 4733SOL    HW215641   0.969   5.276   5.936 -3.0791  0.5651 -1.8440
 4734SOL     OW15642   0.531   7.419   3.196  0.2414 -0.1068  0.5269
 4734SOL    HW115643   0.494   7.336   3.166  0.6798  0.0568 -0.5294
 4734SOL    HW215644   0.582   7.451   3.121  1.7687  0.1173  1.6200
 4735SOL     OW15645   1.960   7.160   4.031 -0.0122  0.4838 -0.2414
 4735SOL    HW115646   1.892   7.129   3.972  0.9063 -2.9895  0.2871
 4735SOL    HW215647   2.040   7.116   4.002  1.3481  1.9098  1.1014
 4736SOL     OW15648   0.778   5.510   5.529 -0.4608 -0.4059  0.0531
 4736SOL    HW115649   0.737   5.583   5.576  0.0929  0.1565 -0.3116
 4736SOL    HW215650   0.749   5.432   5.575 -1.2762  0.0315  0.2978
 4737SOL     OW15651   0.540   7.901   3.852  0.5409  0.3757 -0.0753
 4737SOL    HW115652   0.596   7.846   3.797  0.0085  0.6728 -0.9395
 4737SOL    HW215653   0.477   7.839   3.890  1.1782  0.1046  0.5631
 4738SOL     OW15654   0.358   6.664   3.969 -0.1064 -0.0335  0.2640
 4738SOL    HW115655   0.267   6.643   3.950  0.2660  0.2904 -2.1363
 4738SOL    HW215656   0.355   6.712   4.052 -2.0024 -0.7197  0.6441
 4739SOL     OW15657   1.057   6.272   3.509  0.5222 -0.3163  0.6535
 4739SOL    HW115658   0.968   6.273   3.545  0.0735 -1.8581 -0.3213
 4739SOL    HW215659   1.080   6.179   3.504  1.1299 -0.0983 -1.5855
 4740SOL     OW15660   1.227   7.932   5.133 -0.1565 -0.4394 -0.1247
 4740SOL    HW115661   1.220   7.883   5.051 -0.0766 -0.7786  0.0669
 4740SOL    HW215662   1.139   7.929   5.171  0.1708 -1.7759  0.6333
 4741SOL     OW15663   1.242   6.996   5.336  0.3092  0.1051  0.0691
 4741SOL    HW115664   1.284   6.943   5.269 -1.3816 -1.7052  0.3671
 4741SOL    HW215665   1.280   6.964   5.418 -0.3784 -0.3658  0.2148
 4742SOL     OW15666   1.226   5.299   3.753 -0.1635  0.2252 -0.0137
 4742SOL    HW115667   1.163   5.228   3.743 -0.7996  0.5936  1.1577
 4742SOL    HW215668   1.297   5.278   3.692 -0.8528 -0.8291 -0.4713
 4743SOL     OW15669   0.211   3.854   3.418  0.4355 -0.5377 -0.7424
 4743SOL    HW115670   0.134   3.895   3.379 -0.3390  0.0298  1.2603
 4743SOL    HW215671   0.232   3.782   3.359 -0.2456  0.6468 -2.5253
 4744SOL     OW15672   0.987   6.582   4.980  0.2091 -0.3631  0.0383
 4744SOL    HW115673   0.947   6.509   4.933 -0.5257 -0.6837  1.1249
 4744SOL    HW215674   0.967   6.565   5.072 -1.4521  2.0368  0.2142
 4745SOL     OW15675   2.877   5.856   4.043 -0.1128 -0.6876 -0.1640
 4745SOL    HW115676   2.864   5.862   4.138  0.4165  1.7911 -0.1687
 4745SOL    HW215677   2.971   5.868   4.031 -0.2851 -0.1014 -1.0316
 4746SOL     OW15678   0.334   7.506   4.769 -0.0094  0.3329 -0.1085
 4746SOL    HW115679   0.429   7.512   4.776 -0.0088 -0.1999  0.3840
 4746SOL    HW215680   0.318   7.467   4.683  0.1988  0.8693 -0.3926
 4747SOL     OW15681   2.060   5.848   3.934  0.1384 -0.5949  0.5532
 4747SOL    HW115682   1.995   5.778   3.927  0.6278 -1.0890  0.8372
 4747SOL    HW215683   2.010   5.929   3.924 -0.5867 -0.9474  1.2330
 4748SOL     OW15684   2.793   6.764   4.276  0.1455  0.3369  0.5883
 4748SOL    HW115685   2.766   6.837   4.332 -3.1125 -1.2226  1.3160
 4748SOL    HW215686   2.876   6.734   4.313 -0.7961  0.7676  3.2228
 4749SOL     OW15687   0.529   6.575   3.237 -0.0037  0.0589 -0.4813
 4749SOL    HW115688   0.543   6.667   3.214 -1.2973  0.9611  1.9727
 4749SOL    HW215689   0.438   6.557   3.214 -0.1404 -0.1987  0.2179
 4750SOL     OW15690   0.740   6.712   3.812 -0.1068 -0.6755  0.0811
 4750SOL    HW115691   0.786   6.628   3.803  0.0323 -0.5884 -0.0497
 4750SOL    HW215692   0.654   6.697   3.773 -0.3711 -0.9820  0.7760
 4751SOL     OW15693   1.797   6.694   3.846  0.4026 -0.3613 -0.4471
 4751SOL    HW115694   1.818   6.776   3.800  0.4131  0.7632  1.4482
 4751SOL    HW215695   1.701   6.690   3.846  0.3971 -0.2452 -0.4044
 4752SOL     OW15696   1.415   7.543   6.416 -0.4934 -0.3045 -0.3920
 4752SOL    HW115697   1.341   7.520   6.471 -1.3555  0.8801 -1.0231
 4752SOL    HW215698   1.455   7.459   6.393 -0.2143 -0.8434  1.8395
 4753SOL     OW15699   1.042   5.729   5.318 -0.0293 -0.0093 -0.2662
 4753SOL    HW115700   0.997   5.649   5.347 -0.0887  0.0342 -0.2390
 4753SOL    HW215701   1.113   5.697   5.262 -0.2957 -0.0630 -0.5815
 4754SOL     OW15702   2.279   6.779   6.317  0.0174  0.2825  0.2275
 4754SOL    HW115703   2.339   6.817   6.381  1.5233 -1.2530 -0.1844
 4754SOL    HW215704   2.256   6.852   6.259  1.5604  0.9154  0.3586
 4755SOL     OW15705   1.623   6.181   4.061  0.2886 -0.3360  0.1711
 4755SOL    HW115706   1.599   6.099   4.103 -0.7150  1.0778  2.5254
 4755SOL    HW215707   1.704   6.207   4.105 -1.2985  1.6564  2.1352
 4756SOL     OW15708   1.230   6.605   5.569  0.0411 -0.6981  0.0800
 4756SOL    HW115709   1.269   6.559   5.495  1.7563  1.5165 -0.4975
 4756SOL    HW215710   1.144   6.631   5.539  0.1838 -1.0190 -0.6232
 4757SOL     OW15711   7.122   6.089   8.792 -0.2033  0.2611  0.3335
 4757SOL    HW115712   7.165   6.164   8.751  0.8899 -0.0889  0.8220
 4757SOL    HW215713   7.181   6.062   8.863 -0.3264 -1.3596 -0.1359
 4758SOL     OW15714   1.534   7.210   4.065 -0.3109 -0.4361  0.1987
 4758SOL    HW115715   1.524   7.247   4.153 -0.3865 -0.8876  0.3851
 4758SOL    HW215716   1.488   7.271   4.008 -0.1905 -0.0952  0.4605
 4759SOL     OW15717   1.779   6.586   4.094  0.1505  0.3743 -0.3902
 4759SOL    HW115718   1.799   6.493   4.097  1.5669  0.6703  0.4331
 4759SOL    HW215719   1.796   6.611   4.003  1.5089  0.1532 -0.2249
 4760SOL     OW15720   2.738   3.665   6.681 -0.5625 -0.5461 -0.1438
 4760SOL    HW115721   2.739   3.713   6.763  1.4454  0.6379 -0.7805
 4760SOL    HW215722   2.790   3.586   6.699 -0.6639 -0.6061 -0.1121
 4761SOL     OW15723   6.792   5.217   2.735  0.0281 -0.5674 -0.2421
 4761SOL    HW115724   6.874   5.241   2.692 -0.7774  1.3795 -0.7623
 4761SOL    HW215725   6.735   5.186   2.665 -0.5201  0.4635 -0.2619
 4762SOL     OW15726   0.253   7.062   5.866 -0.0856  0.1465  0.1872
 4762SOL    HW115727   0.289   6.981   5.903  0.0375  0.7446  1.4230
 4762SOL    HW215728   0.284   7.131   5.924 -1.0309  0.9792 -0.2632
 4763SOL     OW15729   0.356   6.296   5.169  0.0356  0.2822  0.0266
 4763SOL    HW115730   0.449   6.273   5.179 -0.0493  0.0348  0.2510
 4763SOL    HW215731   0.312   6.212   5.153  0.0641  0.5712 -1.7768
 4764SOL     OW15732   0.014   0.010   4.576 -0.4734 -0.8885  0.5073
 4764SOL    HW115733   0.044   0.025   4.486 -0.2367  0.0951  0.7386
 4764SOL    HW215734   0.026  -0.084   4.590 -0.4576 -1.0429 -0.4647
 4765SOL     OW15735   1.468   6.405   3.977 -0.0825  0.4173 -0.4290
 4765SOL    HW115736   1.538   6.348   4.010 -0.6746  1.0473  2.0945
 4765SOL    HW215737   1.401   6.344   3.947 -0.3544 -0.2816  1.4504
 4766SOL     OW15738   0.519   6.706   7.002 -0.6502  0.0398 -0.0926
 4766SOL    HW115739   0.534   6.718   7.096 -1.3417  0.6148 -0.0485
 4766SOL    HW215740   0.586   6.643   6.975 -2.0563 -2.2205  1.2951
 4767SOL     OW15741   6.690   5.947   5.122 -0.1754  0.3264  0.0011
 4767SOL    HW115742   6.702   5.980   5.211  1.6241  1.0030 -0.4489
 4767SOL    HW215743   6.622   5.880   5.130 -1.2518  1.5356  1.5773
 4768SOL     OW15744   7.703   4.836   5.905  0.7453 -0.2518 -0.1137
 4768SOL    HW115745   7.666   4.752   5.878 -1.6423  1.0663 -1.2788
 4768SOL    HW215746   7.685   4.840   5.999  0.3086 -0.7884 -0.1683
 4769SOL     OW15747   2.204   5.877   5.031 -0.1515  0.6528 -0.4798
 4769SOL    HW115748   2.223   5.932   4.955  0.1514 -1.1021 -1.7366
 4769SOL    HW215749   2.135   5.817   5.001  0.3537 -0.4188  0.4276
 4770SOL     OW15750   1.335   7.310   6.637 -0.5155  0.0597  0.2093
 4770SOL    HW115751   1.322   7.255   6.715  1.1007  2.1619  2.1076
 4770SOL    HW215752   1.250   7.352   6.624 -0.6977  0.0206  1.1566
 4771SOL     OW15753   1.285   6.372   6.806 -0.2341 -0.4974  0.5431
 4771SOL    HW115754   1.221   6.315   6.762 -0.7018 -0.3580  1.0270
 4771SOL    HW215755   1.255   6.375   6.897  0.1673 -0.0104  0.6629
 4772SOL     OW15756   0.695   7.216   4.946  0.5682  0.1444 -0.2039
 4772SOL    HW115757   0.741   7.274   5.006  0.0714  0.0413  0.2851
 4772SOL    HW215758   0.615   7.192   4.992  0.2432 -0.0461 -0.8555
 4773SOL     OW15759   3.171   6.811   3.499 -0.1969  0.0424 -0.0087
 4773SOL    HW115760   3.210   6.871   3.435  2.0577 -1.3653 -0.0621
 4773SOL    HW215761   3.209   6.725   3.478 -0.9374 -0.8420  1.9847
 4774SOL     OW15762   0.681   5.710   3.484 -0.4035 -0.2309  0.2269
 4774SOL    HW115763   0.735   5.676   3.412 -0.5231 -1.6208  0.7463
 4774SOL    HW215764   0.698   5.804   3.486  0.4992 -0.3577 -0.8613
 4775SOL     OW15765   1.025   6.664   4.337  0.2695 -0.3113 -0.0309
 4775SOL    HW115766   0.971   6.684   4.260  1.5403  0.7794 -0.6811
 4775SOL    HW215767   1.061   6.577   4.319  0.8247  0.0764 -0.8465
 4776SOL     OW15768   0.858   7.064   6.403  0.2085  0.0763 -0.2509
 4776SOL    HW115769   0.902   7.023   6.478 -1.7231  0.0871  0.9584
 4776SOL    HW215770   0.891   7.016   6.327  2.7505  0.5245  0.4874
 4777SOL     OW15771   2.292   5.041   4.952 -0.1976 -0.2280  0.5549
 4777SOL    HW115772   2.359   5.052   4.885 -0.2341  0.5332  0.6422
 4777SOL    HW215773   2.247   5.125   4.956 -1.3504 -0.8060  0.3062
 4778SOL     OW15774   0.774   6.818   4.845  0.0643 -0.2028  0.5254
 4778SOL    HW115775   0.770   6.744   4.784  1.0408 -0.2297  0.4805
 4778SOL    HW215776   0.827   6.884   4.800  0.0117  0.1436  0.9644
 4779SOL     OW15777   0.153   6.051   3.175  1.1315  0.3044  0.0456
 4779SOL    HW115778   0.136   6.018   3.264 -4.2949 -1.4036 -1.2311
 4779SOL    HW215779   0.195   5.977   3.130  1.7871  0.3352  0.5913
 4780SOL     OW15780   3.302   5.130   3.626 -0.6434  0.5435 -0.1505
 4780SOL    HW115781   3.278   5.065   3.692 -0.6626  0.1868 -0.5119
 4780SOL    HW215782   3.389   5.104   3.597 -0.1018  1.4129  0.6185
 4781SOL     OW15783   2.220   6.348   4.626 -0.0382  0.8142 -0.4550
 4781SOL    HW115784   2.153   6.351   4.695 -0.8579  0.4917 -1.2223
 4781SOL    HW215785   2.296   6.309   4.669 -1.2603 -1.6057 -0.3037
 4782SOL     OW15786   7.711   1.001   5.705 -0.1137  0.6921  0.2991
 4782SOL    HW115787   7.626   1.045   5.694 -0.2972  0.2092 -0.3601
 4782SOL    HW215788   7.720   0.988   5.799 -1.6335 -0.8573  0.2827
 4783SOL     OW15789   3.332   5.257   4.133 -0.3196 -0.9311  0.0893
 4783SOL    HW115790   3.301   5.313   4.062 -1.7568 -2.5777 -0.6504
 4783SOL    HW215791   3.424   5.241   4.114  0.4976  2.0975  0.9860
 4784SOL     OW15792   0.544   6.288   4.299  0.2237  0.0744 -0.0509
 4784SOL    HW115793   0.591   6.273   4.217 -0.7673  0.1068 -0.6373
 4784SOL    HW215794   0.551   6.205   4.347  2.6202  0.6759  0.8234
 4785SOL     OW15795   2.147   4.999   2.394  0.4028 -0.1925 -0.6886
 4785SOL    HW115796   2.191   4.999   2.479 -1.4144  0.1161  0.3003
 4785SOL    HW215797   2.140   4.907   2.371  3.7480 -0.2109 -2.1208
 4786SOL     OW15798   1.448   6.128   2.961 -0.1927 -0.0104  0.4611
 4786SOL    HW115799   1.399   6.170   3.031  1.1230  0.9444  0.8574
 4786SOL    HW215800   1.381   6.089   2.904 -1.5209  2.5931  0.0792
 4787SOL     OW15801   0.482   4.119   3.678  0.3625  0.2974  0.2366
 4787SOL    HW115802   0.422   4.189   3.704 -0.9872 -0.8753  0.3993
 4787SOL    HW215803   0.522   4.090   3.760 -1.0117 -0.8113  0.5572
 4788SOL     OW15804   7.993   7.670   4.472 -0.7534  0.2955 -0.0100
 4788SOL    HW115805   8.025   7.621   4.397 -0.9638 -0.8206  0.5962
 4788SOL    HW215806   8.070   7.685   4.526 -0.7918  0.0514  0.1150
 4789SOL     OW15807   3.308   6.667   5.127 -0.3788  0.2818  0.0831
 4789SOL    HW115808   3.310   6.744   5.185  0.2482  0.3166  0.0293
 4789SOL    HW215809   3.388   6.619   5.150 -1.1228 -0.7235  0.6030
 4790SOL     OW15810   0.671   5.253   4.447  0.4754  0.4648 -0.6328
 4790SOL    HW115811   0.674   5.173   4.395 -1.8364 -0.2638  0.2254
 4790SOL    HW215812   0.589   5.296   4.422  0.6106  1.4524  0.4980
 4791SOL     OW15813   1.096   6.599   4.607  0.3531  0.2808  0.4680
 4791SOL    HW115814   1.069   6.507   4.611 -2.5800  1.0613  2.2123
 4791SOL    HW215815   1.045   6.635   4.534  1.7639  0.5112 -0.4467
 4792SOL     OW15816   7.717   7.108   4.839 -0.7177 -0.1324  0.4697
 4792SOL    HW115817   7.786   7.131   4.900 -0.6075 -1.6351  0.9521
 4792SOL    HW215818   7.752   7.130   4.753  0.2040 -0.4856  0.7430
 4793SOL     OW15819   1.476   6.967   4.666 -0.0883  0.1280 -0.2638
 4793SOL    HW115820   1.568   6.975   4.691  0.4102 -2.9287 -0.7611
 4793SOL    HW215821   1.474   6.991   4.573 -0.8816  5.4005  0.8064
 4794SOL     OW15822   0.218   5.397   5.651  0.8753  0.1708  0.6606
 4794SOL    HW115823   0.241   5.348   5.730 -1.3439 -2.3524 -0.1328
 4794SOL    HW215824   0.124   5.410   5.656  0.7549  0.4325 -1.3322
 4795SOL     OW15825   0.549   6.942   4.119 -0.1490  0.1218  0.0035
 4795SOL    HW115826   0.546   7.028   4.162 -0.7360  0.3573 -0.4945
 4795SOL    HW215827   0.458   6.910   4.123  0.1335 -0.6666  0.5474
 4796SOL     OW15828   1.410   4.728   5.060  0.0217  0.0748  0.3034
 4796SOL    HW115829   1.403   4.780   5.140 -0.5906  1.2893 -0.5105
 4796SOL    HW215830   1.380   4.641   5.086 -1.5597  0.8033  1.0596
 4797SOL     OW15831   1.802   5.662   6.698 -0.1318 -0.8244 -0.5794
 4797SOL    HW115832   1.799   5.721   6.773  0.6684 -0.2831 -0.9591
 4797SOL    HW215833   1.755   5.708   6.629 -1.7987 -1.7733 -0.1328
 4798SOL     OW15834   1.979   5.790   2.848 -0.4263 -0.0807 -0.0723
 4798SOL    HW115835   1.932   5.800   2.766 -0.6738  0.2466  0.1097
 4798SOL    HW215836   2.054   5.849   2.840 -0.2036 -0.3810 -0.2409
 4799SOL     OW15837   2.145   6.314   2.825 -0.3561  0.4864  0.0923
 4799SOL    HW115838   2.149   6.293   2.732 -1.6019  0.0137  0.1224
 4799SOL    HW215839   2.220   6.269   2.863  0.6073  1.3073 -0.7737
 4800SOL     OW15840   1.478   7.271   5.865 -0.5690  0.0451  0.0570
 4800SOL    HW115841   1.441   7.195   5.819 -0.1268 -0.7780  1.0313
 4800SOL    HW215842   1.434   7.271   5.950  1.1714 -0.5837  1.0017
 4801SOL     OW15843   0.821   0.260   4.092 -0.1220  0.1489 -0.0187
 4801SOL    HW115844   0.792   0.319   4.022 -0.2684  0.5877  0.4037
 4801SOL    HW215845   0.807   0.310   4.172  0.3580 -0.2264  0.3013
 4802SOL     OW15846   0.668   7.844   4.529  0.1784 -0.0935 -0.0132
 4802SOL    HW115847   0.704   7.864   4.616 -2.1984 -0.0858  1.0454
 4802SOL    HW215848   0.732   7.880   4.468  1.4948  0.6967  1.7337
 4803SOL     OW15849   7.615   6.237   4.899  0.2516  0.0778  0.4403
 4803SOL    HW115850   7.635   6.316   4.849 -1.7346  1.2600  1.3529
 4803SOL    HW215851   7.628   6.165   4.837  0.0623  1.2881 -1.0708
 4804SOL     OW15852   7.268   7.575   6.290 -0.1259  0.2756  0.2620
 4804SOL    HW115853   7.274   7.520   6.212 -0.5586  1.5101 -0.6872
 4804SOL    HW215854   7.322   7.652   6.269  0.6287  0.1401  1.6246
 4805SOL     OW15855   1.371   6.628   4.428  0.2521 -0.0898  0.1245
 4805SOL    HW115856   1.351   6.583   4.510 -0.6811 -1.5826 -0.8815
 4805SOL    HW215857   1.327   6.713   4.436  0.5435 -0.0363  1.3368
 4806SOL     OW15858   0.700   5.857   3.142 -0.1288  0.4064 -0.1451
 4806SOL    HW115859   0.727   5.803   3.068 -0.6117 -0.7281  0.4819
 4806SOL    HW215860   0.609   5.881   3.123 -0.2284  0.1793  0.0467
 4807SOL     OW15861   1.808   7.415   4.117 -0.3206  0.4034 -0.4272
 4807SOL    HW115862   1.749   7.363   4.171 -0.3861  1.2072  0.3078
 4807SOL    HW215863   1.885   7.360   4.106 -1.2711 -0.7700 -1.6215
 4808SOL     OW15864   1.416   6.685   4.705 -0.2389  0.0668 -0.1318
 4808SOL    HW115865   1.472   6.757   4.676  2.0303 -0.2459  3.0294
 4808SOL    HW215866   1.348   6.727   4.758  1.8780 -0.0339  2.8778
 4809SOL     OW15867   2.239   7.314   2.869 -0.4874 -0.4133 -0.0005
 4809SOL    HW115868   2.277   7.230   2.894  1.3597  0.1926 -0.6002
 4809SOL    HW215869   2.263   7.325   2.777 -0.2773  0.9754  0.1932
 4810SOL     OW15870   7.118   0.239   6.221 -0.3795 -0.4022 -0.8249
 4810SOL    HW115871   7.078   0.183   6.287  0.1060 -1.0372 -1.0596
 4810SOL    HW215872   7.199   0.194   6.196  1.1192  1.3949  0.4752
 4811SOL     OW15873   2.080   6.788   3.513  0.4306 -0.2591 -0.2286
 4811SOL    HW115874   2.170   6.820   3.510  0.1155  0.8167  0.9833
 4811SOL    HW215875   2.089   6.693   3.503  1.4450  0.0339 -3.0663
 4812SOL     OW15876   1.419   5.679   5.599 -0.3955  0.6838  0.1199
 4812SOL    HW115877   1.347   5.727   5.558  0.0321  0.2053 -1.2254
 4812SOL    HW215878   1.488   5.745   5.611 -0.9695  1.1071  1.2676
 4813SOL     OW15879   0.612   5.782   6.327 -0.5849  0.0399 -0.0920
 4813SOL    HW115880   0.550   5.760   6.397 -0.2383 -1.9482 -0.3412
 4813SOL    HW215881   0.558   5.785   6.248 -0.6999  0.5906 -0.0009
 4814SOL     OW15882   1.295   7.009   6.580  0.1104  0.4475  0.3370
 4814SOL    HW115883   1.380   6.968   6.562  0.0973  0.9529 -0.9668
 4814SOL    HW215884   1.266   7.042   6.495 -1.4837  0.1274  0.7325
 4815SOL     OW15885   0.764   1.605   6.549 -0.1240  0.3911  0.0586
 4815SOL    HW115886   0.700   1.674   6.560 -1.6612 -0.9075 -0.3499
 4815SOL    HW215887   0.832   1.625   6.613 -2.0658  0.5850  2.1965
 4816SOL     OW15888   7.629   6.217   3.729  0.2909  0.0121 -0.1234
 4816SOL    HW115889   7.681   6.143   3.761 -1.6845 -1.4938 -0.1950
 4816SOL    HW215890   7.586   6.183   3.650 -0.6796  1.2335 -0.1488
 4817SOL     OW15891   2.681   7.101   6.773  0.1501 -0.3383 -0.4114
 4817SOL    HW115892   2.679   7.036   6.702 -0.1592 -0.4653 -0.2867
 4817SOL    HW215893   2.653   7.052   6.851  1.2013 -0.3827 -0.0478
 4818SOL     OW15894   7.941   5.622   4.515 -0.1430 -0.5927  0.1383
 4818SOL    HW115895   7.986   5.545   4.479 -0.3269 -0.3588 -0.6085
 4818SOL    HW215896   7.852   5.616   4.481 -0.5367 -0.7465  1.1488
 4819SOL     OW15897   4.349   0.485   5.274  0.6961 -0.0365 -0.6758
 4819SOL    HW115898   4.420   0.550   5.280 -0.9180  1.6769  2.0649
 4819SOL    HW215899   4.368   0.423   5.344 -0.3275  0.2485 -0.1418
 4820SOL     OW15900   7.863   6.869   3.172  0.1942 -0.4676  0.0172
 4820SOL    HW115901   7.919   6.791   3.174  0.3463 -0.3486  0.3848
 4820SOL    HW215902   7.828   6.875   3.261 -0.2953 -0.4642 -0.1747
 4821SOL     OW15903   1.110   5.715   4.220 -0.8073  0.4505  0.1094
 4821SOL    HW115904   1.106   5.637   4.275  1.1970 -0.5818 -1.1086
 4821SOL    HW215905   1.155   5.780   4.274  0.4295 -0.2994  0.0167
 4822SOL     OW15906   1.987   7.276   3.078  0.3845  0.3052 -0.1906
 4822SOL    HW115907   2.063   7.261   3.021  2.4784  1.5345  2.0453
 4822SOL    HW215908   1.927   7.327   3.025  0.7570 -1.2957 -2.2870
 4823SOL     OW15909   6.417   5.342   4.949  0.0084  0.4094  0.2647
 4823SOL    HW115910   6.462   5.411   4.899  0.0571 -0.0939 -0.4076
 4823SOL    HW215911   6.324   5.362   4.938 -0.1420 -1.2855 -2.4934
 4824SOL     OW15912   2.904   7.392   6.258  0.1183  0.6696 -0.1895
 4824SOL    HW115913   2.868   7.370   6.343  2.3788 -0.2627  0.5888
 4824SOL    HW215914   2.986   7.343   6.252  0.0808  0.7638 -2.8739
 4825SOL     OW15915   2.070   6.295   4.336 -0.4710  0.2251 -0.0032
 4825SOL    HW115916   2.157   6.326   4.311 -1.1921  1.1144 -1.5717
 4825SOL    HW215917   2.065   6.310   4.430  0.6521  1.2462 -0.0835
 4826SOL     OW15918   2.745   5.233   4.074  0.0036 -0.1074  0.0639
 4826SOL    HW115919   2.819   5.181   4.041  0.2859  1.1010 -1.3293
 4826SOL    HW215920   2.785   5.316   4.102 -0.4151 -0.6327  2.4230
 4827SOL     OW15921   7.656   6.017   3.077 -0.4846  0.6013  0.0543
 4827SOL    HW115922   7.747   6.040   3.096  0.2369 -1.1240 -1.0309
 4827SOL    HW215923   7.644   5.931   3.116 -2.0326  1.2632  1.1380
 4828SOL     OW15924   7.782   4.046   3.863  0.1961  0.1422 -0.2583
 4828SOL    HW115925   7.846   3.992   3.816  0.6541  0.4864 -0.0246
 4828SOL    HW215926   7.801   4.136   3.836  0.3336  0.3243  0.4314
 4829SOL     OW15927   0.862   6.174   3.740  0.1147  0.0715  0.0509
 4829SOL    HW115928   0.952   6.185   3.770 -0.0481  0.7209  0.3062
 4829SOL    HW215929   0.836   6.089   3.776 -0.0817  0.8380  1.8144
 4830SOL     OW15930   1.815   6.342   5.665 -0.4306 -0.2100 -0.7578
 4830SOL    HW115931   1.739   6.326   5.721 -0.0971  0.8621  0.0505
 4830SOL    HW215932   1.881   6.279   5.694 -0.6667 -0.4608 -0.7662
 4831SOL     OW15933   1.155   4.799   4.040  0.0016  0.2983  0.7573
 4831SOL    HW115934   1.163   4.706   4.019  0.0449  0.4995 -0.1719
 4831SOL    HW215935   1.069   4.807   4.082 -0.2542 -0.0798  0.3218
 4832SOL     OW15936   0.551   4.015   4.700 -0.2687  0.3606 -0.0596
 4832SOL    HW115937   0.501   4.092   4.671 -1.4766 -1.1553 -2.3658
 4832SOL    HW215938   0.641   4.033   4.674 -0.8402  0.3121 -2.2558
 4833SOL     OW15939   2.580   5.632   3.667  0.1026 -0.1487  0.4486
 4833SOL    HW115940   2.552   5.542   3.684  2.2735 -1.0242 -0.3223
 4833SOL    HW215941   2.644   5.651   3.735  0.6757  0.3214 -0.2129
 4834SOL     OW15942   1.329   5.177   4.186  0.1406 -0.7212  0.4100
 4834SOL    HW115943   1.347   5.261   4.145  0.8533 -1.2935 -0.4779
 4834SOL    HW215944   1.236   5.161   4.167 -0.0615 -0.0460  0.7811
 4835SOL     OW15945   0.997   5.017   4.474  0.0710 -0.0653  0.3598
 4835SOL    HW115946   0.980   5.086   4.538 -1.6099 -0.1235  0.0150
 4835SOL    HW215947   0.927   4.954   4.488  0.2140 -0.5385 -0.9253
 4836SOL     OW15948   7.873   7.101   5.574  0.1575 -0.3188 -0.6701
 4836SOL    HW115949   7.784   7.126   5.597  1.0050  1.8646  0.6388
 4836SOL    HW215950   7.864   7.024   5.518 -2.6363  1.1491 -2.4285
 4837SOL     OW15951   1.965   6.006   4.304  0.3156  0.0941 -0.4003
 4837SOL    HW115952   1.988   6.092   4.270  1.1531 -0.5054 -1.4418
 4837SOL    HW215953   1.882   5.985   4.262 -0.0039  0.4845  0.0315
 4838SOL     OW15954   7.880   6.213   5.292  0.1873 -0.0139 -0.3092
 4838SOL    HW115955   7.972   6.196   5.310 -0.1219 -0.6197  0.8168
 4838SOL    HW215956   7.843   6.239   5.377 -0.5002  1.1151 -0.9198
 4839SOL     OW15957   2.014   7.308   4.686 -0.0276 -0.0922  0.1626
 4839SOL    HW115958   1.955   7.331   4.757 -1.1086  0.5256 -0.8982
 4839SOL    HW215959   2.021   7.212   4.690 -2.9784 -0.4601 -1.0621
 4840SOL     OW15960   1.016   7.484   5.027  0.8640  0.8175  0.0936
 4840SOL    HW115961   1.021   7.398   4.988  0.0306  1.4084 -1.3712
 4840SOL    HW215962   1.080   7.481   5.099 -0.3464 -1.5297  1.1871
 4841SOL     OW15963   0.946   6.140   4.058 -0.1360  0.1859  0.1785
 4841SOL    HW115964   1.022   6.166   4.007 -0.7903  1.9043 -0.0028
 4841SOL    HW215965   0.979   6.127   4.147  0.6844 -1.0203 -0.2817
 4842SOL     OW15966   1.299   5.846   4.360  0.2634  0.0580  0.1035
 4842SOL    HW115967   1.391   5.842   4.333  0.5067  1.4974  0.6148
 4842SOL    HW215968   1.303   5.851   4.456 -0.2489  1.7271  0.0693
 4843SOL     OW15969   0.204   6.455   4.852 -0.0431  0.2085 -0.4187
 4843SOL    HW115970   0.292   6.419   4.841 -0.0856 -0.4388  1.1250
 4843SOL    HW215971   0.218   6.546   4.881  0.1928 -0.3148  1.2448
 4844SOL     OW15972   2.722   3.618   5.018  0.1704 -0.7427 -0.0968
 4844SOL    HW115973   2.767   3.535   5.026  1.5439  0.1466  2.6100
 4844SOL    HW215974   2.758   3.658   4.939  2.1126 -1.2492  0.4868
 4845SOL     OW15975   0.700   6.187   4.658  0.5791 -0.3733  0.5434
 4845SOL    HW115976   0.613   6.206   4.624  0.2799 -0.3299  1.3250
 4845SOL    HW215977   0.685   6.138   4.738  1.3036 -2.0055 -0.2633
 4846SOL     OW15978   7.744   5.530   4.075  0.0449  0.2048  0.0424
 4846SOL    HW115979   7.718   5.548   3.984  0.3420  1.2791  0.1552
 4846SOL    HW215980   7.812   5.463   4.067 -1.3322 -1.1961 -0.3826
 4847SOL     OW15981   1.988   5.294   3.283 -0.2273 -0.0927 -0.4060
 4847SOL    HW115982   1.955   5.255   3.364 -0.4654 -0.7477 -0.8127
 4847SOL    HW215983   1.972   5.388   3.294  0.8878 -0.0243  0.8271
 4848SOL     OW15984   2.460   6.830   4.270  0.3106 -0.4014  0.3909
 4848SOL    HW115985   2.399   6.902   4.281 -1.4119 -1.4431 -1.6303
 4848SOL    HW215986   2.469   6.820   4.176  1.6361 -1.9157  0.6301
 4849SOL     OW15987   7.701   0.234   4.261  0.3476 -0.1300  0.1061
 4849SOL    HW115988   7.662   0.176   4.327  1.5519 -3.1135 -1.6002
 4849SOL    HW215989   7.786   0.257   4.297 -0.1527  0.6600  0.8168
 4850SOL     OW15990   7.738   7.259   5.312  0.7979 -0.1871  0.2398
 4850SOL    HW115991   7.714   7.197   5.380  1.4001  1.1745  1.7710
 4850SOL    HW215992   7.792   7.324   5.357  1.2066  0.7803 -1.5484
 4851SOL     OW15993   0.879   6.946   7.105 -0.1801  0.6428  0.3456
 4851SOL    HW115994   0.946   6.882   7.081  0.1611  1.0386  0.2278
 4851SOL    HW215995   0.893   6.962   7.198 -1.0456 -0.3568  0.6657
 4852SOL     OW15996   1.709   4.890   5.269  0.2637  0.0102 -0.0787
 4852SOL    HW115997   1.615   4.878   5.280  0.0548  0.3885 -1.3298
 4852SOL    HW215998   1.717   4.962   5.206  1.3986  0.2530  0.3126
 4853SOL     OW15999   0.985   5.434   3.133 -0.4827 -0.2848  0.2807
 4853SOL    HW116000   1.074   5.457   3.158 -0.2449 -2.7654  2.0699
 4853SOL    HW216001   0.996   5.378   3.055 -0.3987 -1.0612  0.8387
 4854SOL     OW16002   2.260   6.007   6.743  0.3827  0.3258 -0.3581
 4854SOL    HW116003   2.267   6.093   6.785  1.3908  0.3366 -0.5232
 4854SOL    HW216004   2.167   5.984   6.752  0.3536  0.8279  0.8806
 4855SOL     OW16005   0.182   6.453   4.573 -0.0315 -0.5702 -0.0709
 4855SOL    HW116006   0.107   6.422   4.522  0.3561 -1.1710 -0.2918
 4855SOL    HW216007   0.153   6.450   4.664 -0.5161 -0.1027 -0.2057
 4856SOL     OW16008   0.927   0.231   5.584 -0.3188 -0.0588 -0.2745
 4856SOL    HW116009   0.975   0.167   5.531 -3.3845 -1.5323 -1.5495
 4856SOL    HW216010   0.921   0.309   5.528 -2.7807 -1.3054 -1.9392
 4857SOL     OW16011   2.037   5.661   3.666  0.4575 -0.2138  0.0997
 4857SOL    HW116012   2.083   5.625   3.590  1.4735  1.8339 -0.3213
 4857SOL    HW216013   2.101   5.718   3.708 -0.4085 -0.5623  1.9628
 4858SOL     OW16014   1.399   6.274   4.324 -0.6004 -0.3989  0.2902
 4858SOL    HW116015   1.365   6.265   4.413  0.2735  0.7134  0.7591
 4858SOL    HW216016   1.492   6.295   4.335 -0.1155 -1.7365 -0.9290
 4859SOL     OW16017   2.715   6.098   4.405  0.4334  0.1214  0.0091
 4859SOL    HW116018   2.706   6.146   4.487 -2.4015  1.7170 -1.1048
 4859SOL    HW216019   2.772   6.154   4.351  1.0437 -0.1846  0.3183
 4860SOL     OW16020   0.209   6.407   6.163  0.3124  0.4115 -0.2771
 4860SOL    HW116021   0.195   6.344   6.233 -0.9191  1.6553  0.6405
 4860SOL    HW216022   0.168   6.368   6.086 -1.2562  0.4714  0.5028
 4861SOL     OW16023   0.643   4.948   2.662  0.0294 -0.4689  0.2413
 4861SOL    HW116024   0.679   4.924   2.748 -0.0821  1.6115  0.9307
 4861SOL    HW216025   0.548   4.938   2.673 -0.1012  1.0187  0.8541
 4862SOL     OW16026   1.658   6.657   4.381  0.0438  0.0081 -0.0144
 4862SOL    HW116027   1.649   6.621   4.293  1.6817 -0.2606 -0.1093
 4862SOL    HW216028   1.577   6.632   4.426  0.0017 -1.5006 -0.8725
 4863SOL     OW16029   1.172   5.574   3.996  0.0556 -0.6086  0.3777
 4863SOL    HW116030   1.162   5.637   4.068  1.0518 -1.5711  1.3987
 4863SOL    HW216031   1.104   5.508   4.012  0.9161 -1.3613  1.0526
 4864SOL     OW16032   0.281   0.255   5.879  0.2127 -0.1887 -0.3869
 4864SOL    HW116033   0.278   0.258   5.974  0.7739  0.1528 -0.3731
 4864SOL    HW216034   0.258   0.165   5.856 -0.2338 -0.1879  0.0537
 4865SOL     OW16035   0.878   0.466   5.876  0.1053  0.2569  0.2596
 4865SOL    HW116036   0.876   0.406   5.950  0.0051 -0.9875 -0.7088
 4865SOL    HW216037   0.971   0.482   5.860  0.1421  0.1535  0.3716
 4866SOL     OW16038   0.135   6.136   5.319  0.1832  0.2254 -0.7333
 4866SOL    HW116039   0.086   6.059   5.347 -0.1815  0.2962 -1.1737
 4866SOL    HW216040   0.219   6.129   5.364  0.2715 -0.5999 -1.0238
 4867SOL     OW16041   0.997   5.443   5.921  0.2088 -0.0459 -0.3579
 4867SOL    HW116042   1.052   5.452   5.843 -2.8843  0.6611 -2.6933
 4867SOL    HW216043   1.008   5.526   5.968  1.8757 -0.3541 -0.1497
 4868SOL     OW16044   7.773   4.628   7.352 -0.1492  0.0515 -0.2118
 4868SOL    HW116045   7.731   4.699   7.303 -1.6877 -0.3196  0.4935
 4868SOL    HW216046   7.711   4.607   7.422  1.2259 -0.5733  0.8712
 4869SOL     OW16047   0.342   7.463   5.387 -0.0353  0.4245  0.4165
 4869SOL    HW116048   0.327   7.390   5.447 -0.6154  0.1900 -0.0056
 4869SOL    HW216049   0.406   7.519   5.433 -0.0933 -0.0013  1.0303
 4870SOL     OW16050   0.918   0.741   4.925 -0.6582 -0.2973  0.0112
 4870SOL    HW116051   0.958   0.674   4.870  0.7413 -0.1648  0.8318
 4870SOL    HW216052   0.969   0.820   4.909 -0.5183 -0.1366  1.1360
 4871SOL     OW16053   2.529   5.460   5.659 -0.6129  0.0463 -0.1218
 4871SOL    HW116054   2.622   5.478   5.674 -0.2538 -0.8431 -1.1217
 4871SOL    HW216055   2.510   5.500   5.575 -0.6841 -1.1760 -0.7153
 4872SOL     OW16056   1.991   5.327   5.087  0.3289 -0.0103  0.2399
 4872SOL    HW116057   1.935   5.390   5.132  0.1567 -0.0981  0.1496
 4872SOL    HW216058   2.072   5.375   5.070 -0.3398  0.6967 -1.1961
 4873SOL     OW16059   0.647   7.349   6.041 -0.6693 -0.4342  0.0982
 4873SOL    HW116060   0.650   7.329   6.135 -0.4423  0.6006  0.3331
 4873SOL    HW216061   0.669   7.442   6.037 -1.0248 -0.3899 -0.9571
 4874SOL     OW16062   0.778   6.092   6.919  0.0946 -0.3815  0.3500
 4874SOL    HW116063   0.731   6.009   6.924  1.6232 -1.3846 -0.7599
 4874SOL    HW216064   0.716   6.157   6.952 -1.1438 -1.9483  1.2917
 4875SOL     OW16065   2.422   5.177   5.180  0.1470  0.6030  0.0018
 4875SOL    HW116066   2.404   5.098   5.129 -0.3648  0.7127  0.0045
 4875SOL    HW216067   2.505   5.209   5.146 -0.5332  1.0747 -1.2685
 4876SOL     OW16068   7.790   4.923   7.962  1.0845  0.2548  0.1727
 4876SOL    HW116069   7.730   4.928   8.037  1.3698 -0.2229  0.4403
 4876SOL    HW216070   7.807   5.014   7.939  0.1751  0.3925  0.0292
 4877SOL     OW16071   7.995   5.702   7.160 -0.2144  0.1786  0.2579
 4877SOL    HW116072   7.985   5.785   7.113 -2.8171 -0.6037 -0.7729
 4877SOL    HW216073   8.036   5.644   7.096 -0.8411 -0.0265  0.0350
 4878SOL     OW16074   1.609   5.910   5.563  0.4376 -0.2423  0.2890
 4878SOL    HW116075   1.665   5.945   5.494  0.2432  1.7483  1.0689
 4878SOL    HW216076   1.599   5.983   5.625 -0.9323 -1.3589  1.4506
 4879SOL     OW16077   0.036   6.262   6.356 -0.2555  0.0723  0.1617
 4879SOL    HW116078   0.049   6.170   6.380 -1.0190  0.0971  0.7113
 4879SOL    HW216079  -0.059   6.274   6.358 -0.1625  0.8665  0.0685
 4880SOL     OW16080   1.342   0.091   7.413  0.7609 -0.0128  0.8528
 4880SOL    HW116081   1.299   0.096   7.499  0.0925  0.5381  0.4920
 4880SOL    HW216082   1.279   0.047   7.357  0.0049  2.0916 -0.0564
 4881SOL     OW16083   7.945   5.250   5.865 -0.2432  0.4211  0.2924
 4881SOL    HW116084   7.930   5.235   5.772  0.5055  0.5063  0.1529
 4881SOL    HW216085   8.040   5.260   5.873 -0.2707  0.0816  1.1157
 4882SOL     OW16086   1.559   5.473   8.559  0.1269 -0.0425 -0.3751
 4882SOL    HW116087   1.639   5.429   8.589  0.6994  2.0021  1.3662
 4882SOL    HW216088   1.488   5.423   8.599  0.4841 -1.7094 -1.7010
 4883SOL     OW16089   7.374   6.175   5.385 -0.0658 -0.2423  0.4728
 4883SOL    HW116090   7.410   6.211   5.304 -2.7899 -0.7994 -1.0932
 4883SOL    HW216091   7.412   6.229   5.454 -0.2377  2.5103 -1.4278
 4884SOL     OW16092   1.713   6.631   6.064 -0.6204 -0.3658  0.5802
 4884SOL    HW116093   1.798   6.665   6.036 -0.4840  0.7331  2.1806
 4884SOL    HW216094   1.652   6.657   5.995 -0.0471  0.8388  0.5029
 4885SOL     OW16095   1.675   0.176   6.070  0.2478 -0.6264  0.2216
 4885SOL    HW116096   1.598   0.189   6.125  0.8730  0.1263  0.9455
 4885SOL    HW216097   1.716   0.262   6.065  0.6895 -0.8772 -0.6987
 4886SOL     OW16098   2.495   5.140   6.118 -0.6372 -0.3663 -0.3474
 4886SOL    HW116099   2.425   5.074   6.109 -1.1905  0.3911 -1.9067
 4886SOL    HW216100   2.490   5.191   6.037  0.9860  0.4421  0.0385
 4887SOL     OW16101   7.208   5.466   4.936 -0.0611  0.2158 -0.0068
 4887SOL    HW116102   7.152   5.481   5.013 -0.4519 -1.6587  0.1248
 4887SOL    HW216103   7.163   5.397   4.888  2.4959 -1.9204  0.5002
 4888SOL     OW16104   3.596   7.310   5.383  0.0033  0.1176 -0.3775
 4888SOL    HW116105   3.654   7.272   5.449  0.1687 -0.5376 -0.8922
 4888SOL    HW216106   3.599   7.404   5.400 -0.9991 -0.1158  1.4197
 4889SOL     OW16107   7.712   7.259   6.227  1.2548 -0.1348 -0.1286
 4889SOL    HW116108   7.759   7.225   6.151  2.5070 -0.9509  0.9572
 4889SOL    HW216109   7.701   7.353   6.208 -1.2165 -0.8142 -2.6307
 4890SOL     OW16110   1.832   5.143   6.275  0.4280 -0.1174 -0.2855
 4890SOL    HW116111   1.788   5.154   6.191 -1.3914  0.7021  0.7345
 4890SOL    HW216112   1.843   5.232   6.309  0.6643 -0.4619  0.5877
 4891SOL     OW16113   3.412   6.595   6.780  0.1467 -0.1159  0.4630
 4891SOL    HW116114   3.388   6.663   6.844 -0.8420  0.6834 -0.6939
 4891SOL    HW216115   3.339   6.595   6.718  0.5314 -1.6842 -0.0300
 4892SOL     OW16116   6.850   5.520   7.601 -0.4622 -0.3098  0.3530
 4892SOL    HW116117   6.864   5.548   7.692 -0.3807  1.0225 -0.0556
 4892SOL    HW216118   6.758   5.538   7.585 -0.1986  0.6002 -0.1991
 4893SOL     OW16119   1.133   6.807   6.644 -0.1307 -0.5993 -0.0287
 4893SOL    HW116120   1.208   6.765   6.687 -0.7471 -2.6952 -0.8605
 4893SOL    HW216121   1.167   6.891   6.615  1.0070 -0.1467  2.2994
 4894SOL     OW16122   0.503   4.826   3.987  0.6076 -0.2083  0.4039
 4894SOL    HW116123   0.573   4.875   3.943  1.7550 -2.4741 -0.4558
 4894SOL    HW216124   0.530   4.734   3.981 -2.4098 -1.2036  0.0817
 4895SOL     OW16125   0.032   7.363   7.008 -0.3308 -0.0426 -0.2827
 4895SOL    HW116126   0.078   7.286   6.975 -0.1201 -0.0719  0.0714
 4895SOL    HW216127  -0.060   7.346   6.989 -0.4545 -1.0472  1.0833
 4896SOL     OW16128   0.594   7.327   6.918  0.5403  0.0528  0.2113
 4896SOL    HW116129   0.613   7.294   7.006  1.5528  0.4728  0.1701
 4896SOL    HW216130   0.645   7.270   6.860  0.4577  0.2378 -0.0435
 4897SOL     OW16131   2.352   0.404   6.386  0.0964 -0.0625  0.3861
 4897SOL    HW116132   2.328   0.346   6.458  0.3559 -0.2238  0.3479
 4897SOL    HW216133   2.401   0.476   6.428  0.2918 -0.1829  0.3668
 4898SOL     OW16134   7.878   6.816   7.755  0.5380  0.4069  0.3074
 4898SOL    HW116135   7.916   6.900   7.729  0.0143  0.9083  1.1161
 4898SOL    HW216136   7.793   6.814   7.712 -0.4031  1.3150  2.0322
 4899SOL     OW16137   3.204   7.100   8.890 -0.2127 -0.4056 -0.1216
 4899SOL    HW116138   3.190   7.133   8.978 -2.0585 -1.4243  0.0057
 4899SOL    HW216139   3.247   7.172   8.843  1.3183 -0.0414  1.7168
 4900SOL     OW16140   0.975   7.248   6.051 -0.2421 -0.0452  1.2334
 4900SOL    HW116141   0.935   7.169   6.015  0.3440  0.2036 -0.0008
 4900SOL    HW216142   0.936   7.320   6.002  1.3413  0.2297  0.2961
 4901SOL     OW16143   0.136   6.144   5.955  0.2309 -0.2206  0.4941
 4901SOL    HW116144   0.192   6.168   5.881  0.2779  1.3845  1.0245
 4901SOL    HW216145   0.050   6.130   5.915  0.7603 -1.7539 -0.1833
 4902SOL     OW16146   1.960   6.120   6.360  0.8450 -0.6596 -0.0192
 4902SOL    HW116147   1.994   6.206   6.383 -0.0246  0.5726 -2.8610
 4902SOL    HW216148   1.989   6.106   6.270 -0.6946 -2.4441 -0.3163
 4903SOL     OW16149   7.073   4.990   7.787 -0.0187 -0.0816  0.1276
 4903SOL    HW116150   7.015   4.959   7.717 -0.0818  2.2729 -0.9514
 4903SOL    HW216151   7.035   4.953   7.867 -0.7060 -1.7799 -0.9184
 4904SOL     OW16152   0.825   4.492  10.021  0.2892 -0.0498 -0.0915
 4904SOL    HW116153   0.880   4.477  10.098 -0.1208  0.6532  0.3545
 4904SOL    HW216154   0.751   4.543  10.055  1.9905  3.7514 -1.6042
 4905SOL     OW16155   7.614   6.082   6.878 -0.4251 -0.0127  0.0542
 4905SOL    HW116156   7.558   6.080   6.801 -0.4962  0.8707  0.0813
 4905SOL    HW216157   7.683   6.018   6.858  1.4641  2.4881 -2.2392
 4906SOL     OW16158   0.922   7.228   7.064 -0.0186 -0.2171 -0.2883
 4906SOL    HW116159   0.871   7.266   7.136  1.6626 -0.3185  1.0012
 4906SOL    HW216160   0.932   7.136   7.088  0.5882 -0.2412 -0.6289
 4907SOL     OW16161   0.225   4.596   6.129 -0.1529 -0.6178  0.2627
 4907SOL    HW116162   0.256   4.546   6.204  0.2223  0.9196  1.1728
 4907SOL    HW216163   0.129   4.585   6.130 -0.0472 -1.6417  0.1717
 4908SOL     OW16164   0.480   7.940   5.702  0.2199  0.2368 -0.0587
 4908SOL    HW116165   0.485   7.901   5.615  0.0214  0.3482 -0.1213
 4908SOL    HW216166   0.555   7.999   5.706 -0.0923  0.6598 -0.3686
 4909SOL     OW16167   7.090   6.622   6.391  0.7274 -0.1684 -0.2499
 4909SOL    HW116168   7.174   6.636   6.348  0.7710 -1.8346 -0.8041
 4909SOL    HW216169   7.111   6.614   6.484  0.9524  1.0481 -0.1886
 4910SOL     OW16170   0.790   7.608   6.044 -0.0204  0.2862 -0.0835
 4910SOL    HW116171   0.857   7.626   6.109  0.2793  0.6644 -0.4928
 4910SOL    HW216172   0.820   7.652   5.965  0.0624 -0.9149 -0.7438
 4911SOL     OW16173   2.467   5.494   6.055 -0.0346  0.3716  0.3339
 4911SOL    HW116174   2.545   5.533   6.095  0.8546 -1.0555  0.0599
 4911SOL    HW216175   2.501   5.434   5.988 -1.2231 -1.8766  1.6078
 4912SOL     OW16176   1.987   7.171   5.464 -0.1082  0.0847 -0.1386
 4912SOL    HW116177   1.952   7.177   5.553 -3.6419  0.6162 -1.4023
 4912SOL    HW216178   2.039   7.250   5.453  0.6516 -0.1432  1.4994
 4913SOL     OW16179   2.398   4.865   5.834  0.2937 -0.5190  0.2091
 4913SOL    HW116180   2.478   4.813   5.828  0.7683  0.2606 -0.4679
 4913SOL    HW216181   2.388   4.903   5.746 -0.1048  0.4224  0.6551
 4914SOL     OW16182   1.685   7.336   7.380 -0.3730 -0.2151 -0.1618
 4914SOL    HW116183   1.692   7.282   7.301  0.3126 -0.7268  0.2388
 4914SOL    HW216184   1.636   7.413   7.352  0.9883  0.2441 -1.4166
 4915SOL     OW16185   7.237   6.715   6.133  0.2489 -0.1122 -0.2196
 4915SOL    HW116186   7.304   6.761   6.183  0.0069  1.8061 -1.5812
 4915SOL    HW216187   7.285   6.669   6.065  0.2925  0.2042 -0.4035
 4916SOL     OW16188   7.594   5.272   8.082 -0.5230 -0.3000 -0.1452
 4916SOL    HW116189   7.524   5.255   8.019 -0.5217 -1.6080  0.1756
 4916SOL    HW216190   7.566   5.227   8.161  0.0225  0.3607  0.4388
 4917SOL     OW16191   1.477   5.557   6.344  0.8320 -0.2676  0.1879
 4917SOL    HW116192   1.563   5.592   6.320 -0.6339  2.3646 -1.7957
 4917SOL    HW216193   1.436   5.536   6.260 -0.6150 -1.1550  1.0771
 4918SOL     OW16194   7.183   5.029   6.057 -0.2543 -0.0015 -0.4290
 4918SOL    HW116195   7.151   4.959   6.114 -0.3732  0.4242  0.0272
 4918SOL    HW216196   7.225   5.091   6.116  0.3357  0.0480 -0.8938
 4919SOL     OW16197   0.211   7.842   6.977  0.1500 -0.3790 -0.6556
 4919SOL    HW116198   0.135   7.857   6.920  0.1209  0.6331 -0.3760
 4919SOL    HW216199   0.175   7.803   7.056  0.1569 -1.5460 -1.2020
 4920SOL     OW16200   7.470   5.107   7.142  0.2956  0.2615  0.0760
 4920SOL    HW116201   7.542   5.076   7.087 -0.5893 -0.0210 -0.9564
 4920SOL    HW216202   7.391   5.068   7.103 -0.2232 -1.7087  2.7897
 4921SOL     OW16203   3.310   7.614   5.175 -0.0790 -0.0310 -0.4593
 4921SOL    HW116204   3.389   7.652   5.213 -0.3668 -0.6451  0.7884
 4921SOL    HW216205   3.263   7.575   5.249 -0.9814 -0.6981 -1.3482
 4922SOL     OW16206   6.893   5.734   8.750 -1.1370 -0.5956 -0.0252
 4922SOL    HW116207   6.986   5.743   8.768 -1.2250 -0.3920  0.3288
 4922SOL    HW216208   6.889   5.708   8.658 -0.7642  0.3859 -0.3301
 4923SOL     OW16209   2.762   6.856   4.993 -0.1393 -0.1023 -0.6806
 4923SOL    HW116210   2.783   6.821   4.907 -1.5354  2.2198 -2.0746
 4923SOL    HW216211   2.753   6.779   5.049  2.2919 -1.6049 -2.2015
 4924SOL     OW16212   0.356   7.517   6.509 -0.3574 -0.0662 -0.1691
 4924SOL    HW116213   0.349   7.466   6.590  1.3731 -0.8475 -0.4701
 4924SOL    HW216214   0.410   7.593   6.533 -0.8668  0.3439 -0.3054
 4925SOL     OW16215   2.497   6.356   4.872  0.0930  0.1223 -0.0665
 4925SOL    HW116216   2.575   6.379   4.922  0.4699  0.4371 -0.7977
 4925SOL    HW216217   2.428   6.412   4.908 -0.3426 -1.6022  2.0409
 4926SOL     OW16218   2.099   7.600   6.601  0.0925  0.1780 -0.0669
 4926SOL    HW116219   2.158   7.590   6.676 -1.0348 -0.4884  0.7662
 4926SOL    HW216220   2.012   7.590   6.639 -0.5331  0.6334 -1.3580
 4927SOL     OW16221   7.978   7.354   4.260  0.0307  0.2298 -0.3846
 4927SOL    HW116222   7.897   7.401   4.276 -0.7239 -0.1130 -2.8119
 4927SOL    HW216223   8.045   7.423   4.251 -0.3962  0.6372 -0.4570
 4928SOL     OW16224   0.324   5.620   5.041  0.0805 -0.2539  0.0226
 4928SOL    HW116225   0.279   5.571   4.973  1.5731  0.5447 -1.6251
 4928SOL    HW216226   0.256   5.674   5.081 -1.0947 -1.7570  0.1858
 4929SOL     OW16227   0.295   6.912   7.710  0.7485 -0.8373  0.2003
 4929SOL    HW116228   0.313   6.831   7.759 -2.4719 -0.9742  1.3874
 4929SOL    HW216229   0.246   6.883   7.634 -2.0489  0.0216  1.5650
 4930SOL     OW16230   7.216   6.416   3.977  0.5745  0.4192 -0.3727
 4930SOL    HW116231   7.179   6.352   4.037  0.9307 -0.1810 -0.7835
 4930SOL    HW216232   7.303   6.436   4.013  1.8749 -1.8631 -1.9987
 4931SOL     OW16233   0.706   6.902   8.364  0.1501 -0.2962  0.0444
 4931SOL    HW116234   0.727   6.880   8.455 -2.0698  1.0160  0.9576
 4931SOL    HW216235   0.785   6.944   8.330  0.7785 -0.1708  1.5820
 4932SOL     OW16236   0.240   7.406   7.450 -0.0425 -0.1895  0.1496
 4932SOL    HW116237   0.261   7.466   7.521 -0.7773 -0.8119  0.9060
 4932SOL    HW216238   0.230   7.462   7.373  1.9023  0.3899  0.2523
 4933SOL     OW16239   7.218   5.155   8.849  0.0961 -0.1480 -0.6126
 4933SOL    HW116240   7.270   5.148   8.769 -0.1765  1.6328 -0.9981
 4933SOL    HW216241   7.146   5.213   8.825 -1.3793 -1.5415  0.2716
 4934SOL     OW16242   7.646   5.768   8.297 -0.1958  0.0747 -0.1221
 4934SOL    HW116243   7.586   5.828   8.253 -0.3091  0.6768  0.8156
 4934SOL    HW216244   7.618   5.681   8.269  0.0991  0.4438 -1.6650
 4935SOL     OW16245   1.728   7.023   7.532  0.8422 -0.0579  0.0499
 4935SOL    HW116246   1.787   7.001   7.604 -0.1824  0.9773  1.2420
 4935SOL    HW216247   1.691   7.108   7.556 -1.2640 -0.7388 -0.5841
 4936SOL     OW16248   7.903   5.293   5.380 -0.3421  0.0925 -0.9079
 4936SOL    HW116249   7.962   5.341   5.438 -0.1070 -0.4926 -0.6637
 4936SOL    HW216250   7.870   5.360   5.319 -0.3550  0.6499 -0.2972
 4937SOL     OW16251   2.132   7.334   3.778 -0.0709 -0.4942 -0.1444
 4937SOL    HW116252   2.139   7.242   3.752 -2.8784 -0.8913  0.1710
 4937SOL    HW216253   2.055   7.367   3.730  0.3474  1.4533  0.4174
 4938SOL     OW16254   7.610   4.034   6.169  0.3235 -0.5565 -0.3558
 4938SOL    HW116255   7.679   4.046   6.104  1.1841 -2.9117  0.0231
 4938SOL    HW216256   7.609   4.115   6.219  0.8168  0.6406 -2.1727
 4939SOL     OW16257   7.609   6.548   9.116  0.5490  0.2954  0.1187
 4939SOL    HW116258   7.653   6.629   9.140 -0.2998  0.7590  0.1567
 4939SOL    HW216259   7.531   6.546   9.173 -1.8936  1.7272 -2.8543
 4940SOL     OW16260   7.620   5.587   7.310  0.1144  0.2777 -0.3023
 4940SOL    HW116261   7.573   5.564   7.229 -2.0088  0.4793  0.7921
 4940SOL    HW216262   7.611   5.683   7.316  2.0256  0.5300 -0.8076
 4941SOL     OW16263   0.371   7.924   7.833  0.5122  0.3055  0.6566
 4941SOL    HW116264   0.395   7.845   7.882 -1.3666 -1.6569 -1.4065
 4941SOL    HW216265   0.312   7.972   7.892 -0.8531 -1.4504  0.7712
 4942SOL     OW16266   7.861   6.911   6.807  0.3814  0.0029 -0.3987
 4942SOL    HW116267   7.941   6.943   6.765  1.0906 -0.9078  0.2380
 4942SOL    HW216268   7.839   6.831   6.758  0.7638 -0.6250  0.4391
 4943SOL     OW16269   1.951   6.731   5.997  0.4993  0.5287 -0.1563
 4943SOL    HW116270   2.046   6.722   5.989  0.6329  1.1137  0.5450
 4943SOL    HW216271   1.938   6.824   6.020 -0.1669  0.2621  0.6216
 4944SOL     OW16272   1.673   6.467   4.974 -0.0778  0.1972 -0.3473
 4944SOL    HW116273   1.715   6.434   4.895 -1.5679 -1.1012 -0.6414
 4944SOL    HW216274   1.737   6.451   5.044  0.9970  0.7944 -1.1562
 4945SOL     OW16275   7.868   5.679   8.523 -0.2147 -0.1576 -0.1808
 4945SOL    HW116276   7.852   5.614   8.455  1.4088 -2.2829  1.3094
 4945SOL    HW216277   7.946   5.726   8.493  1.1815 -1.8511  0.6388
 4946SOL     OW16278   7.543   6.250   5.158 -0.2344  0.5438 -0.1275
 4946SOL    HW116279   7.452   6.271   5.137 -0.3689 -0.0966 -0.1904
 4946SOL    HW216280   7.590   6.264   5.076 -0.1138  1.7349  0.1190
 4947SOL     OW16281   1.981   0.107   6.289  0.5016  0.0154 -0.3800
 4947SOL    HW116282   2.055   0.152   6.246  0.4588  1.7662  1.2648
 4947SOL    HW216283   1.955   0.166   6.360 -1.6585 -1.1806 -0.1005
 4948SOL     OW16284   0.039   3.445   5.607 -0.6013  0.1434 -0.4037
 4948SOL    HW116285   0.079   3.418   5.689 -0.9303 -0.5428 -0.4651
 4948SOL    HW216286  -0.050   3.411   5.611 -0.1159 -1.4114 -1.7693
 4949SOL     OW16287   2.238   7.987   6.007  0.4014 -0.6271  0.0741
 4949SOL    HW116288   2.245   8.076   6.042  2.6542 -0.3617 -0.8794
 4949SOL    HW216289   2.254   7.997   5.913 -1.1650 -1.8565 -0.3782
 4950SOL     OW16290   1.428   6.529   6.491 -0.5918 -0.3892 -0.3517
 4950SOL    HW116291   1.422   6.576   6.408 -0.6325 -0.1826 -0.2333
 4950SOL    HW216292   1.521   6.510   6.501 -0.5577 -0.2116 -0.3326
 4951SOL     OW16293   2.912   6.269   6.283  0.0533 -0.2763  0.2422
 4951SOL    HW116294   2.877   6.198   6.337 -0.6554 -0.4335 -0.4019
 4951SOL    HW216295   2.988   6.231   6.240  0.6136 -0.1547  1.1022
 4952SOL     OW16296   7.824   6.752   4.982  0.5463 -0.4156  0.7368
 4952SOL    HW116297   7.759   6.769   5.051 -0.9159 -0.2219 -0.6221
 4952SOL    HW216298   7.902   6.800   5.011 -1.0954  2.5277  0.6739
 4953SOL     OW16299   2.541   6.844   6.101  0.1962 -0.6740  0.5533
 4953SOL    HW116300   2.532   6.939   6.094 -1.7330 -0.4260  4.0763
 4953SOL    HW216301   2.635   6.829   6.090  0.6442  1.7189  0.4057
 4954SOL     OW16302   1.126   6.066   5.758  0.3888  0.4198 -0.3450
 4954SOL    HW116303   1.034   6.052   5.781  0.3454 -0.5066 -1.0514
 4954SOL    HW216304   1.124   6.091   5.665  0.9413 -0.9675 -0.7499
 4955SOL     OW16305   1.379   3.316   4.453  0.1914 -0.4816 -0.6263
 4955SOL    HW116306   1.363   3.224   4.430 -0.2473 -0.4668 -0.3645
 4955SOL    HW216307   1.470   3.331   4.425  0.8846 -1.5046  0.9706
 4956SOL     OW16308   1.370   7.801   8.253  0.3196  0.5104  0.1420
 4956SOL    HW116309   1.327   7.721   8.282  0.7563  0.5970  1.0572
 4956SOL    HW216310   1.406   7.779   8.167 -0.7451  0.1606 -0.2343
 4957SOL     OW16311   0.989   0.543   6.575 -0.4782  0.3760  0.3759
 4957SOL    HW116312   0.943   0.494   6.507 -1.6622  2.0960 -0.1394
 4957SOL    HW216313   1.082   0.532   6.554 -0.8077  0.6600 -1.3970
 4958SOL     OW16314   1.117   0.335   7.344  0.9238 -0.6555 -0.1640
 4958SOL    HW116315   1.158   0.322   7.430  0.2836  1.2700  0.4955
 4958SOL    HW216316   1.030   0.297   7.353  1.1734 -1.2601 -0.2693
 4959SOL     OW16317   1.017   6.612   6.489  0.2151  0.2166  0.2784
 4959SOL    HW116318   0.929   6.610   6.528  0.2043 -0.4099  0.2258
 4959SOL    HW216319   1.064   6.677   6.542  0.5977 -1.5251  2.2227
 4960SOL     OW16320   0.156   0.997   7.350  0.2632  0.2690  0.1033
 4960SOL    HW116321   0.217   1.059   7.309 -0.0023  0.4758  0.0173
 4960SOL    HW216322   0.207   0.918   7.363  0.8778  0.8168  1.1031
 4961SOL     OW16323   7.445   6.423   4.572 -0.0839 -0.1305 -0.0389
 4961SOL    HW116324   7.413   6.347   4.622 -0.4081  1.3310  2.1138
 4961SOL    HW216325   7.368   6.477   4.557  0.1529 -0.1540 -1.5079
 4962SOL     OW16326   0.813   5.169   5.526 -0.1378  0.2660 -0.4489
 4962SOL    HW116327   0.784   5.084   5.559 -0.6079  0.6218  0.0582
 4962SOL    HW216328   0.744   5.197   5.466  0.3993 -0.0703 -1.2605
 4963SOL     OW16329   2.056   6.776   5.594 -0.0718  0.0569 -0.1312
 4963SOL    HW116330   2.039   6.686   5.567  0.5698  0.4627 -2.0429
 4963SOL    HW216331   2.152   6.784   5.592 -0.1431  0.9388 -0.5972
 4964SOL     OW16332   0.440   5.490   7.388  0.5256 -0.2211 -0.1253
 4964SOL    HW116333   0.397   5.420   7.436  0.5418 -0.5220 -0.5489
 4964SOL    HW216334   0.531   5.463   7.383  0.3243 -0.7251 -1.2751
 4965SOL     OW16335   7.356   4.990   7.757  0.4076  0.0847 -0.3099
 4965SOL    HW116336   7.263   5.007   7.741  0.4277  0.1356 -0.3722
 4965SOL    HW216337   7.358   4.901   7.791  0.2554  0.3546  0.4254
 4966SOL     OW16338   0.713   7.125   5.923 -0.0282  0.1603  0.0911
 4966SOL    HW116339   0.684   7.207   5.963 -1.5715  0.1819 -0.9909
 4966SOL    HW216340   0.637   7.067   5.930  0.2816 -0.4302 -1.1628
 4967SOL     OW16341   7.227   7.394   6.079  0.1264 -0.2392  0.2191
 4967SOL    HW116342   7.133   7.394   6.099 -0.6010  1.7186 -2.5796
 4967SOL    HW216343   7.232   7.361   5.989  2.1365 -0.3021  0.3171
 4968SOL     OW16344   7.320   5.624   8.117  0.3104  0.3868  0.0575
 4968SOL    HW116345   7.352   5.624   8.207 -0.5885 -0.2590  0.3977
 4968SOL    HW216346   7.226   5.610   8.125  0.2102  0.3643 -0.9816
 4969SOL     OW16347   2.158   0.600   6.073 -0.5127  0.3578 -0.1271
 4969SOL    HW116348   2.133   0.671   6.013  2.6310  2.3955  0.6970
 4969SOL    HW216349   2.215   0.544   6.020  1.5315  1.6610  0.5704
 4970SOL     OW16350   1.691   7.171   7.978  0.6331 -0.3245 -0.1133
 4970SOL    HW116351   1.604   7.137   8.001  1.2288 -0.7960  1.6640
 4970SOL    HW216352   1.691   7.261   8.011  1.3573 -0.8742  1.5178
 4971SOL     OW16353   7.744   5.311   7.033  0.1778  0.1537 -0.3937
 4971SOL    HW116354   7.770   5.398   7.001  2.7362 -1.1587 -2.1751
 4971SOL    HW216355   7.737   5.257   6.954 -1.0029 -1.3806  0.7018
 4972SOL     OW16356   0.014   6.509   7.102  0.0777 -0.4747  0.3842
 4972SOL    HW116357   0.081   6.565   7.063  2.6006 -1.7435  2.5858
 4972SOL    HW216358  -0.035   6.474   7.027  1.3084  1.1388 -1.2592
 4973SOL     OW16359   2.246   6.054   7.190  0.2132  0.5473  0.5804
 4973SOL    HW116360   2.229   6.127   7.250 -1.8055 -1.1638  2.2926
 4973SOL    HW216361   2.334   6.024   7.213  0.8753  2.1049  0.1851
 4974SOL     OW16362   1.048   6.721   7.028 -0.2310 -0.4517  0.5132
 4974SOL    HW116363   1.020   6.740   6.939  1.8625 -1.0537 -0.3345
 4974SOL    HW216364   1.066   6.627   7.028  0.9607 -0.2415  1.2108
 4975SOL     OW16365   7.612   4.940   8.203 -0.3888  0.5556  0.2379
 4975SOL    HW116366   7.567   4.883   8.265 -0.6886  1.4732  0.8815
 4975SOL    HW216367   7.576   5.027   8.220 -0.6088  0.8128 -1.3391
 4976SOL     OW16368   0.431   5.918   8.876 -0.1353  0.7578 -0.5964
 4976SOL    HW116369   0.368   5.981   8.911 -1.6049  0.0430 -1.8305
 4976SOL    HW216370   0.397   5.832   8.903  1.4689  0.4108  0.4867
 4977SOL     OW16371   7.693   4.758   7.784  0.1595 -0.2425 -0.3915
 4977SOL    HW116372   7.746   4.820   7.835  1.5994 -0.2053 -1.8619
 4977SOL    HW216373   7.664   4.693   7.849 -0.3386  1.2336  0.9474
 4978SOL     OW16374   1.874   5.707   7.712  0.0650 -0.2026  0.7077
 4978SOL    HW116375   1.834   5.718   7.798 -0.2742 -0.8487  0.6386
 4978SOL    HW216376   1.825   5.636   7.671 -0.0695  0.3928 -0.2032
 4979SOL     OW16377   7.199   7.434   6.512  0.6324 -0.3396  0.1573
 4979SOL    HW116378   7.235   7.480   6.436  0.6864 -0.6306  0.0080
 4979SOL    HW216379   7.140   7.369   6.474  0.2858 -0.1595  0.3832
 4980SOL     OW16380   1.067   7.053   7.308 -0.2339  0.5116  0.0013
 4980SOL    HW116381   1.118   7.031   7.386 -0.2046 -1.3960 -0.5033
 4980SOL    HW216382   1.126   7.034   7.235 -1.3392 -0.9589 -0.5683
 4981SOL     OW16383   0.154   4.912   7.651 -0.3422 -0.4691  0.0726
 4981SOL    HW116384   0.076   4.948   7.608 -0.0623 -0.0765 -0.1207
 4981SOL    HW216385   0.227   4.945   7.599 -0.0790 -1.5989 -0.3033
 4982SOL     OW16386   7.029   5.286   6.314  0.0877 -0.1632 -0.1029
 4982SOL    HW116387   6.965   5.260   6.381 -0.1803 -0.4689 -0.4706
 4982SOL    HW216388   7.022   5.381   6.309 -0.2207 -0.1805 -0.0186
 4983SOL     OW16389   0.601   4.945   8.578 -0.4461  0.4117  0.0955
 4983SOL    HW116390   0.578   5.016   8.638 -0.1779 -0.2223  0.9776
 4983SOL    HW216391   0.688   4.969   8.545 -0.8825  1.1037 -0.5919
 4984SOL     OW16392   0.525   3.441   6.744 -0.5691 -0.1336  0.3515
 4984SOL    HW116393   0.600   3.497   6.762 -0.5441 -0.0715  0.0599
 4984SOL    HW216394   0.544   3.401   6.659 -0.1591 -1.3035  0.9791
 4985SOL     OW16395   2.183   5.415   6.590  0.0238  0.0510  0.1972
 4985SOL    HW116396   2.144   5.498   6.618 -0.5585 -0.1128 -0.1093
 4985SOL    HW216397   2.134   5.349   6.638  0.4717 -0.1203  0.4206
 4986SOL     OW16398   7.058   6.391   6.248 -0.0402 -0.0013 -0.0248
 4986SOL    HW116399   7.046   6.472   6.297 -1.1376  0.0013 -0.2731
 4986SOL    HW216400   6.987   6.391   6.183 -0.1700 -1.2455  0.0955
 4987SOL     OW16401   1.180   4.345   7.287 -0.1722 -0.0507 -0.5468
 4987SOL    HW116402   1.173   4.255   7.255 -0.6126 -0.4128  0.5231
 4987SOL    HW216403   1.099   4.359   7.336  0.5503  0.3983  0.5622
 4988SOL     OW16404   1.988   7.041   8.980  0.0715 -0.3816 -0.1570
 4988SOL    HW116405   1.949   6.961   8.945  0.0548 -0.2654 -0.4137
 4988SOL    HW216406   1.940   7.111   8.935 -0.7768 -0.2064  0.9840
 4989SOL     OW16407   7.741   7.493   8.064 -0.2564  0.0200 -0.2751
 4989SOL    HW116408   7.685   7.415   8.057 -0.7486  0.3410  0.0251
 4989SOL    HW216409   7.731   7.522   8.155  1.7961 -0.9323  0.3006
 4990SOL     OW16410   0.986   5.421   4.107  0.3614 -0.3794  0.1116
 4990SOL    HW116411   0.915   5.476   4.139 -0.8914 -0.7252 -1.9129
 4990SOL    HW216412   1.038   5.400   4.185 -1.2663  0.5720  1.4983
 4991SOL     OW16413   2.053   6.155   6.104  0.1515  0.0382  0.8035
 4991SOL    HW116414   2.051   6.248   6.082  1.8434  0.5795  2.6418
 4991SOL    HW216415   2.110   6.116   6.037 -0.2435  0.3903  0.2548
 4992SOL     OW16416   0.370   6.708   7.267  0.3566  0.3647  0.3650
 4992SOL    HW116417   0.365   6.659   7.349  0.1001  0.0545  0.1642
 4992SOL    HW216418   0.324   6.654   7.204  0.5058  0.6315  0.0261
 4993SOL     OW16419   7.870   5.943   6.815 -0.0688  0.4459  0.2612
 4993SOL    HW116420   7.917   5.868   6.780 -1.5924 -0.2870 -0.2930
 4993SOL    HW216421   7.878   6.010   6.747 -0.5340  0.0356 -0.1996
 4994SOL     OW16422   1.031   6.162   7.011 -0.1606  0.0870 -0.0855
 4994SOL    HW116423   0.953   6.143   6.959 -0.9130  0.0546  1.0234
 4994SOL    HW216424   1.066   6.076   7.035  0.4667  0.0944 -0.9056
 4995SOL     OW16425   1.596   4.845   7.344 -0.3871 -0.5117  0.3058
 4995SOL    HW116426   1.564   4.935   7.335 -1.8425 -1.0226  0.0673
 4995SOL    HW216427   1.523   4.790   7.314  0.9851 -1.7477 -0.9682
 4996SOL     OW16428   0.894   5.937   5.245  0.3133 -0.1594  0.2705
 4996SOL    HW116429   0.950   5.862   5.264 -2.9658 -2.4323  1.8738
 4996SOL    HW216430   0.876   5.977   5.330  0.1293  1.0317 -0.3002
 4997SOL     OW16431   0.521   6.388   5.714 -0.1313  0.1457  0.1701
 4997SOL    HW116432   0.577   6.459   5.746 -1.2491  0.8257  0.6795
 4997SOL    HW216433   0.547   6.376   5.623  0.7237  0.5451  0.3500
 4998SOL     OW16434   6.872   6.431   6.075 -0.1339  0.2014 -0.3221
 4998SOL    HW116435   6.889   6.375   5.999  0.4270  0.7830 -0.6321
 4998SOL    HW216436   6.785   6.404   6.105 -0.8328  0.6695 -1.8138
 4999SOL     OW16437   7.757   6.026   4.792  0.2594  0.7648 -0.4041
 4999SOL    HW116438   7.757   5.936   4.827 -0.4515  1.6197  1.9923
 4999SOL    HW216439   7.811   6.075   4.854 -0.5629  2.2601 -0.8424
 5000SOL     OW16440   0.732   0.340   6.736  0.5378  0.2853  0.6126
 5000SOL    HW116441   0.821   0.322   6.766  0.3199 -0.5304  0.7999
 5000SOL    HW216442   0.743   0.378   6.649  1.1896  2.7727  1.6988
 5001SOL     OW16443   7.674   6.452   7.554 -0.0654 -0.8689 -0.4062
 5001SOL    HW116444   7.581   6.429   7.547  0.1575 -3.1275  2.3680
 5001SOL    HW216445   7.674   6.542   7.587 -1.2431 -0.9101 -0.2404
 5002SOL     OW16446   2.523   6.963   5.750 -0.3001 -0.5179 -0.1136
 5002SOL    HW116447   2.535   6.871   5.775  1.5502  0.0002  1.0683
 5002SOL    HW216448   2.569   6.971   5.667  1.8812 -0.1267  1.0529
 5003SOL     OW16449   7.648   6.842   6.126 -0.0285  0.4427  0.2355
 5003SOL    HW116450   7.605   6.846   6.040  0.1857  0.9332  0.1507
 5003SOL    HW216451   7.576   6.831   6.188 -0.1606 -0.2642 -0.0319
 5004SOL     OW16452   1.376   5.576   6.759  0.0419 -0.0457 -0.1711
 5004SOL    HW116453   1.350   5.545   6.672  1.8662 -0.3273 -0.6616
 5004SOL    HW216454   1.298   5.563   6.813 -1.0992  0.0221 -1.7196
 5005SOL     OW16455   0.663   5.411   6.687 -0.0110 -0.2633  0.0424
 5005SOL    HW116456   0.723   5.341   6.712 -0.6957 -0.3773  1.4932
 5005SOL    HW216457   0.605   5.371   6.623  0.0127 -0.8442  0.3736
 5006SOL     OW16458   7.770   6.259   6.402  0.2978  0.1790  0.2458
 5006SOL    HW116459   7.704   6.316   6.442  0.1111  0.0417  0.1312
 5006SOL    HW216460   7.721   6.203   6.343  0.5981  0.5020 -0.3144
 5007SOL     OW16461   0.211   5.050   7.392 -0.3769 -0.2650  0.0876
 5007SOL    HW116462   0.239   5.129   7.439 -1.0827 -0.6335  1.1717
 5007SOL    HW216463   0.214   5.075   7.300  0.7327  0.5924  0.3313
 5008SOL     OW16464   0.105   6.502   6.485 -0.1620  0.4889 -0.3259
 5008SOL    HW116465   0.061   6.428   6.443 -1.8844  1.9872 -1.2925
 5008SOL    HW216466   0.070   6.579   6.441  1.6263  1.9143  0.5964
 5009SOL     OW16467   1.197   7.020   4.806  0.0752 -0.1917 -0.1583
 5009SOL    HW116468   1.291   7.006   4.801  0.2344 -2.3429  4.0850
 5009SOL    HW216469   1.159   6.933   4.806 -1.0170 -0.0985  5.3216
 5010SOL     OW16470   6.724   5.261   7.586 -0.7388 -0.2576 -0.1067
 5010SOL    HW116471   6.670   5.266   7.507 -0.0171 -0.0241 -0.6020
 5010SOL    HW216472   6.802   5.312   7.564 -0.1558 -0.8935  0.4589
 5011SOL     OW16473   7.903   0.019   6.127 -0.3715  0.4701  0.3609
 5011SOL    HW116474   7.824   0.017   6.180  0.0645  0.2736  1.0210
 5011SOL    HW216475   7.943   0.104   6.148 -0.2443  0.4310  0.2773
 5012SOL     OW16476   0.786   6.864   5.469 -0.6234  0.4656  0.0002
 5012SOL    HW116477   0.786   6.938   5.409 -0.9600  1.0805  0.7520
 5012SOL    HW216478   0.752   6.899   5.551  0.4458 -0.2038  0.7568
 5013SOL     OW16479   0.399   0.514   7.302  0.3441  0.0559  0.0609
 5013SOL    HW116480   0.321   0.471   7.335 -1.3765  2.9430  0.1219
 5013SOL    HW216481   0.409   0.480   7.213 -1.6529  0.3809 -0.3357
 5014SOL     OW16482   0.413   6.491   6.469 -0.0736  0.3622 -0.1717
 5014SOL    HW116483   0.318   6.481   6.458 -0.2257  1.5242 -0.0464
 5014SOL    HW216484   0.434   6.573   6.424  0.8899  0.0802 -0.2545
 5015SOL     OW16485   1.057   5.679   6.059  0.2402 -0.3114  0.3957
 5015SOL    HW116486   0.981   5.696   6.115 -0.0531  0.8341 -0.3129
 5015SOL    HW216487   1.079   5.764   6.022  1.1475 -0.8414 -0.3305
 5016SOL     OW16488   7.440   7.163   7.693 -0.5014  0.2090  0.3579
 5016SOL    HW116489   7.477   7.249   7.672  0.9283 -0.6521 -0.9079
 5016SOL    HW216490   7.389   7.139   7.616 -0.1624 -0.4445  0.3280
 5017SOL     OW16491   1.053   6.990   5.817 -0.2663  0.0063  0.1012
 5017SOL    HW116492   0.991   6.943   5.873 -0.6657  0.7333  0.2784
 5017SOL    HW216493   1.076   6.927   5.749 -1.3116 -0.2281 -0.0509
 5018SOL     OW16494   7.821   7.877   5.470  0.2748  0.0306 -0.4797
 5018SOL    HW116495   7.847   7.789   5.444 -0.0949 -0.5266  0.9735
 5018SOL    HW216496   7.904   7.923   5.484  0.4786 -0.4105 -0.1969
 5019SOL     OW16497   7.556   4.138   6.984 -0.1926 -0.6597 -0.4094
 5019SOL    HW116498   7.546   4.199   7.058 -1.3585 -0.6752 -0.5396
 5019SOL    HW216499   7.649   4.115   6.985  0.4819  1.7653 -0.8736
 5020SOL     OW16500   7.604   6.719   7.659  0.1325 -0.1651  0.2994
 5020SOL    HW116501   7.553   6.774   7.718  1.7904  2.6239 -0.6776
 5020SOL    HW216502   7.570   6.739   7.572  0.5724 -0.9367 -0.0608
 5021SOL     OW16503   0.362   4.243   5.872 -0.4228  0.1400 -0.2838
 5021SOL    HW116504   0.349   4.240   5.967  0.2064  0.0372 -0.1987
 5021SOL    HW216505   0.275   4.224   5.836 -1.0455  1.7500  0.2645
 5022SOL     OW16506   0.154   6.928   5.412  0.0423  0.6906  0.3284
 5022SOL    HW116507   0.193   6.844   5.435  0.6863  0.9327  0.1287
 5022SOL    HW216508   0.061   6.918   5.435  0.2240  0.1281  0.8401
 5023SOL     OW16509   1.151   7.315   8.221  0.1409  0.5240 -0.4068
 5023SOL    HW116510   1.102   7.275   8.149  0.7136 -0.5166 -0.2401
 5023SOL    HW216511   1.102   7.291   8.299  0.0415  0.8543 -0.3645
 5024SOL     OW16512   4.066   7.042   7.697 -0.4393  0.2571 -0.5171
 5024SOL    HW116513   4.113   6.996   7.767  1.9604  3.1944  0.0162
 5024SOL    HW216514   3.997   7.090   7.742 -0.2337  0.4719 -0.4230
 5025SOL     OW16515   0.349   4.804   6.034  0.1775 -0.0670 -0.3329
 5025SOL    HW116516   0.295   4.740   6.082 -0.3410  1.8657  1.8372
 5025SOL    HW216517   0.431   4.808   6.084 -0.3164  1.8953  0.4111
 5026SOL     OW16518   1.981   6.126   5.766 -0.4552  0.0303 -0.2187
 5026SOL    HW116519   1.932   6.062   5.819 -0.7478 -0.6082 -1.2345
 5026SOL    HW216520   2.067   6.129   5.807 -1.0114  0.3972  0.9763
 5027SOL     OW16521   7.548   7.276   7.332  0.6021  0.3833  0.1629
 5027SOL    HW116522   7.612   7.324   7.385  2.3209 -2.3532  0.7902
 5027SOL    HW216523   7.598   7.246   7.256 -0.5789  0.1372 -0.5444
 5028SOL     OW16524   1.171   6.119   6.632  0.3752 -0.3531  0.8002
 5028SOL    HW116525   1.078   6.122   6.608  1.1254 -1.4534 -2.8521
 5028SOL    HW216526   1.183   6.031   6.668  0.2630 -0.8644 -0.3477
 5029SOL     OW16527   1.309   6.826   5.092 -0.6112 -0.0790 -0.4965
 5029SOL    HW116528   1.363   6.748   5.082  1.1045  1.0324 -0.2565
 5029SOL    HW216529   1.242   6.817   5.024 -1.5749 -2.5788  0.6333
 5030SOL     OW16530   1.826   5.915   6.502 -0.2203  0.0923 -0.5538
 5030SOL    HW116531   1.861   5.930   6.590  0.9064  0.2425 -1.0031
 5030SOL    HW216532   1.881   5.969   6.445 -0.7347 -0.2362 -1.3874
 5031SOL     OW16533   2.670   6.402   6.217 -0.1092 -0.6736 -0.1418
 5031SOL    HW116534   2.702   6.480   6.171 -0.3437 -1.1839 -1.1996
 5031SOL    HW216535   2.749   6.353   6.239 -0.0287 -0.8791 -0.8505
 5032SOL     OW16536   0.464   5.971   5.858 -0.0120  0.6959 -0.1970
 5032SOL    HW116537   0.532   6.033   5.834  0.0397  1.1128  0.9381
 5032SOL    HW216538   0.382   6.013   5.829  0.0345  1.2449  0.4409
 5033SOL     OW16539   1.546   6.251   6.784  0.0153 -0.1920 -0.1746
 5033SOL    HW116540   1.606   6.325   6.776  0.6006 -0.5254  0.9073
 5033SOL    HW216541   1.459   6.290   6.784  0.2744  0.3965 -0.6801
 5034SOL     OW16542   0.299   6.934   7.408 -0.1158  0.2755 -0.0904
 5034SOL    HW116543   0.266   6.898   7.326 -0.2592 -0.6944  0.3762
 5034SOL    HW216544   0.329   7.022   7.386 -0.9513  0.3449 -0.9892
 5035SOL     OW16545   2.858   6.101   5.406  0.1832 -0.3743  0.3589
 5035SOL    HW116546   2.782   6.135   5.453  0.8215 -0.2609  1.3439
 5035SOL    HW216547   2.893   6.177   5.359  0.0525 -0.2863  0.4037
 5036SOL     OW16548   1.995   6.419   6.043  0.2624 -0.6910 -0.1780
 5036SOL    HW116549   2.087   6.436   6.024  0.1146  0.8931  0.3294
 5036SOL    HW216550   1.949   6.492   6.003 -0.4918  0.0903  1.9609
 5037SOL     OW16551   6.777   5.938   7.669  0.1290  0.2135  0.1800
 5037SOL    HW116552   6.709   5.965   7.607 -0.6552 -1.3217  0.3166
 5037SOL    HW216553   6.729   5.915   7.748  1.1129  2.0221  1.3377
 5038SOL     OW16554   0.441   4.129   6.558 -0.1115  0.4692  0.4205
 5038SOL    HW116555   0.413   4.054   6.611 -0.8949  0.5713  0.1601
 5038SOL    HW216556   0.360   4.175   6.538  0.3889  1.5546  0.8271
 5039SOL     OW16557   0.861   6.551   6.259  0.3513  0.4151 -0.6645
 5039SOL    HW116558   0.786   6.557   6.199  0.4841  1.2027 -0.7642
 5039SOL    HW216559   0.833   6.599   6.337  0.2536 -0.4403 -0.1554
 5040SOL     OW16560   0.464   5.845   6.110  0.0447 -0.6396  0.0692
 5040SOL    HW116561   0.475   5.899   6.032  0.4369 -0.7335  0.0544
 5040SOL    HW216562   0.374   5.859   6.137  0.1953  0.1553  0.1655
 5041SOL     OW16563   0.617   5.526   6.920 -0.5592 -0.3441  0.1946
 5041SOL    HW116564   0.675   5.486   6.986  1.8436  0.7756 -1.0955
 5041SOL    HW216565   0.655   5.501   6.836 -1.7970  0.7089 -0.7203
 5042SOL     OW16566   1.028   7.617   6.175  0.3278 -0.1537  0.5631
 5042SOL    HW116567   1.114   7.579   6.156  0.1205 -0.2782 -0.1379
 5042SOL    HW216568   1.025   7.696   6.122  0.2921  0.2468  1.1452
 5043SOL     OW16569   7.687   5.923   8.523  0.5249 -0.0090  0.3378
 5043SOL    HW116570   7.667   5.856   8.589 -2.1921 -0.0837 -0.4516
 5043SOL    HW216571   7.686   5.876   8.440 -0.0910  0.7728 -0.1078
 5044SOL     OW16572   4.132   6.876   5.565  0.3564  0.4087  0.1940
 5044SOL    HW116573   4.127   6.783   5.543 -0.2476  0.6201 -0.6040
 5044SOL    HW216574   4.092   6.921   5.491 -2.4734  1.1383  2.0242
 5045SOL     OW16575   0.173   6.084   7.044  0.3721 -0.3061 -0.2638
 5045SOL    HW116576   0.181   6.165   6.993  0.5728 -0.0256  0.2067
 5045SOL    HW216577   0.215   6.017   6.990 -1.4772 -0.4991 -1.5388
 5046SOL     OW16578   2.096   5.661   7.420 -0.0440  0.0042  0.1654
 5046SOL    HW116579   2.068   5.746   7.386  2.1070  0.1831 -1.3545
 5046SOL    HW216580   2.179   5.679   7.464  0.6073 -1.3418 -0.4619
 5047SOL     OW16581   6.924   6.720   6.128 -0.4880 -0.3246  0.3560
 5047SOL    HW116582   6.929   6.627   6.106 -1.3046 -0.2770 -0.0913
 5047SOL    HW216583   6.981   6.731   6.204  2.3651 -0.5315 -1.5918
 5048SOL     OW16584   2.544   6.684   5.801 -0.6670 -0.0995 -0.6881
 5048SOL    HW116585   2.622   6.687   5.857 -0.7876  1.8642 -0.5236
 5048SOL    HW216586   2.533   6.592   5.780 -0.2500 -0.8771  2.0180
 5049SOL     OW16587   0.336   5.919   4.580  0.4882 -0.3187  0.3873
 5049SOL    HW116588   0.266   5.938   4.518  0.9102  0.0953  0.0395
 5049SOL    HW216589   0.294   5.862   4.645  0.6333 -2.8811 -1.5900
 5050SOL     OW16590   1.103   6.351   5.856 -0.4194  0.5929  0.6129
 5050SOL    HW116591   1.043   6.350   5.782 -1.3112 -1.8799  1.2458
 5050SOL    HW216592   1.145   6.265   5.853  0.0210  0.6980  2.5627
 5051SOL     OW16593   3.171   6.709   7.111 -0.5946  0.2824 -0.5056
 5051SOL    HW116594   3.244   6.716   7.050 -0.2011 -0.1066 -0.0916
 5051SOL    HW216595   3.207   6.736   7.195 -1.0637  0.5772 -0.3934
 5052SOL     OW16596   1.747   6.437   6.444 -0.4963 -0.1985 -0.2397
 5052SOL    HW116597   1.810   6.493   6.398 -1.3217  0.9638  0.0113
 5052SOL    HW216598   1.785   6.349   6.439 -0.3608 -0.0603 -2.7890
 5053SOL     OW16599   1.601   6.368   6.103 -0.0853  0.2038 -0.0039
 5053SOL    HW116600   1.646   6.444   6.141  2.6268 -0.5808 -1.3874
 5053SOL    HW216601   1.525   6.355   6.159 -0.5743  3.8008  0.4047
 5054SOL     OW16602   1.193   6.577   6.195  0.1287  0.0802 -0.1197
 5054SOL    HW116603   1.286   6.597   6.199  0.3723 -0.8559 -0.9313
 5054SOL    HW216604   1.173   6.571   6.102 -1.2627  2.5458 -0.0565
 5055SOL     OW16605   1.433   7.228   6.398 -0.1047 -0.5429 -0.6348
 5055SOL    HW116606   1.409   7.241   6.490  2.2813 -1.1786  0.1515
 5055SOL    HW216607   1.363   7.174   6.362 -0.3052 -1.5935  1.2364
 5056SOL     OW16608   0.352   7.281   5.582  1.0278 -0.3771  0.8005
 5056SOL    HW116609   0.406   7.203   5.569  0.9508 -0.5111  1.2405
 5056SOL    HW216610   0.396   7.327   5.654  1.7205  0.5775 -0.2113
 5057SOL     OW16611   1.963   7.172   7.386  0.1319  0.1570 -0.6816
 5057SOL    HW116612   1.973   7.147   7.293 -1.0958 -0.3965 -0.6890
 5057SOL    HW216613   1.880   7.131   7.412  0.0488  1.0090  0.4339
 5058SOL     OW16614   0.116   5.327   9.359 -0.1360 -0.4857 -0.0968
 5058SOL    HW116615   0.197   5.313   9.408 -0.4598 -1.0940  0.2786
 5058SOL    HW216616   0.088   5.239   9.334  0.5838 -0.1419 -2.3407
 5059SOL     OW16617   0.350   7.596   6.979  0.5129 -0.1321 -0.4949
 5059SOL    HW116618   0.329   7.684   6.948  0.0007 -0.0251  0.1384
 5059SOL    HW216619   0.341   7.541   6.901  0.6237  0.3425 -0.8474
 5060SOL     OW16620   0.892   6.115   6.670 -0.2215  0.4238  0.3214
 5060SOL    HW116621   0.859   6.095   6.758  1.6638 -1.8246  0.6204
 5060SOL    HW216622   0.854   6.046   6.614 -1.3760  1.8113 -0.6848
 5061SOL     OW16623   2.181   4.809   4.834  0.2301 -0.3914 -0.2623
 5061SOL    HW116624   2.217   4.883   4.883 -0.5266  0.4659 -0.9657
 5061SOL    HW216625   2.257   4.769   4.792  0.5931  0.2736 -0.2549
 5062SOL     OW16626   1.042   6.217   5.530  0.0195 -0.4697 -0.0148
 5062SOL    HW116627   0.978   6.272   5.575  2.2569  2.9039 -0.6103
 5062SOL    HW216628   0.990   6.167   5.467 -2.1376  1.7816 -0.1873
 5063SOL     OW16629   2.111   7.639   7.929  0.2203 -0.4421  0.1976
 5063SOL    HW116630   2.068   7.571   7.981 -1.1902  0.3406  0.0949
 5063SOL    HW216631   2.140   7.704   7.992 -0.3451 -0.1155  0.1287
 5064SOL     OW16632   0.963   5.574   6.652  0.2921 -0.3503 -0.1350
 5064SOL    HW116633   1.008   5.489   6.654 -1.2464 -1.1844  0.7278
 5064SOL    HW216634   1.010   5.624   6.585  1.0978 -1.9523 -0.8265
 5065SOL     OW16635   7.095   5.934   6.873 -0.9031 -0.4015 -0.0689
 5065SOL    HW116636   7.017   5.979   6.908 -2.1500 -1.0233 -1.9306
 5065SOL    HW216637   7.096   5.850   6.919 -1.4794 -0.4886 -0.2071
 5066SOL     OW16638   2.694   7.101   6.419  0.0645 -0.1145  0.9226
 5066SOL    HW116639   2.605   7.074   6.395  0.4052  0.7527 -1.6037
 5066SOL    HW216640   2.749   7.026   6.398  0.2049  0.1782  0.2307
 5067SOL     OW16641   1.525   6.156   6.508  0.3641 -0.2604 -0.6060
 5067SOL    HW116642   1.533   6.061   6.518  2.9919 -0.4560 -3.2400
 5067SOL    HW216643   1.530   6.190   6.598  0.3912 -2.5305  0.3127
 5068SOL     OW16644   0.861   7.590   5.641  0.4827  0.1685 -0.2769
 5068SOL    HW116645   0.769   7.600   5.614  0.0635 -0.6533  0.7856
 5068SOL    HW216646   0.881   7.670   5.688  0.3822  0.4397 -0.6878
 5069SOL     OW16647   1.208   6.822   7.719  0.0588  0.4463 -0.0191
 5069SOL    HW116648   1.171   6.743   7.759  1.6392 -0.7428 -0.8156
 5069SOL    HW216649   1.140   6.851   7.658 -0.0645 -1.0654 -0.6596
 5070SOL     OW16650   0.400   6.235   6.893 -0.2316 -0.6911  0.1064
 5070SOL    HW116651   0.308   6.239   6.867  0.0548 -0.2964 -0.9241
 5070SOL    HW216652   0.447   6.268   6.816  0.8114 -1.6255  0.3212
 5071SOL     OW16653   0.551   6.146   7.481 -0.1356 -0.1609 -0.1584
 5071SOL    HW116654   0.596   6.202   7.545 -0.4845  2.7271 -2.2356
 5071SOL    HW216655   0.525   6.069   7.531  2.8477  0.1928  2.2701
 5072SOL     OW16656   0.051   3.863   5.075 -0.1482 -0.4060  0.2926
 5072SOL    HW116657  -0.001   3.944   5.073 -0.5086 -0.6245 -1.9073
 5072SOL    HW216658   0.139   3.892   5.051  0.2491 -0.3862  1.6802
 5073SOL     OW16659   0.406   7.945   6.670  0.3424 -0.1313 -0.2929
 5073SOL    HW116660   0.331   7.969   6.724  0.4436 -1.4038  0.4656
 5073SOL    HW216661   0.432   8.026   6.626  0.2278  0.9564  1.5454
 5074SOL     OW16662   7.113   7.003   6.200  0.7776 -0.4732 -0.3621
 5074SOL    HW116663   7.146   7.059   6.129  1.4398  0.2047  0.4680
 5074SOL    HW216664   7.059   6.938   6.155 -0.0594  0.8544 -1.3517
 5075SOL     OW16665   6.938   7.037   6.553  0.5948  0.8038  0.1053
 5075SOL    HW116666   6.944   6.953   6.599  2.4615  1.3564  0.9548
 5075SOL    HW216667   6.867   7.083   6.597 -0.2940 -0.2246 -0.2146
 5076SOL     OW16668   7.799   4.900   8.862 -0.0124 -0.0340 -0.1125
 5076SOL    HW116669   7.789   4.904   8.957 -3.6209 -0.8093 -0.3019
 5076SOL    HW216670   7.868   4.836   8.848  1.3247  0.8502  1.9354
 5077SOL     OW16671   0.041   5.827   7.390  0.3026  0.6221 -0.0136
 5077SOL    HW116672   0.132   5.797   7.395  0.0169 -0.1886  0.4347
 5077SOL    HW216673   0.005   5.780   7.315 -0.6868 -1.6967  1.8330
 5078SOL     OW16674   1.103   5.682   7.754 -0.5437  0.8953  0.6756
 5078SOL    HW116675   1.024   5.628   7.759  0.6023 -1.0815 -0.9256
 5078SOL    HW216676   1.175   5.621   7.770  0.8437  1.7956 -1.6246
 5079SOL     OW16677   0.421   5.676   7.024 -0.4511 -0.5914  0.0053
 5079SOL    HW116678   0.497   5.628   6.991 -1.5766 -2.2733 -0.2722
 5079SOL    HW216679   0.458   5.740   7.085  1.3192 -0.0977 -1.4875
 5080SOL     OW16680   0.357   5.190   7.695 -0.0427 -0.4469 -0.0414
 5080SOL    HW116681   0.450   5.191   7.718 -0.3575  2.3820  1.6352
 5080SOL    HW216682   0.318   5.133   7.761  0.3699 -0.6340  0.0456
 5081SOL     OW16683   7.798   6.957   8.880  0.1850 -0.0426  0.2181
 5081SOL    HW116684   7.780   6.907   8.960 -2.2733  0.4135  0.0137
 5081SOL    HW216685   7.738   6.920   8.815 -0.3147  1.8816 -0.4683
 5082SOL     OW16686   1.430   5.718   8.550 -0.0201 -0.2093 -0.1542
 5082SOL    HW116687   1.407   5.625   8.554 -0.2347 -0.2225 -1.2272
 5082SOL    HW216688   1.373   5.761   8.614 -0.2017 -0.7614  0.0583
 5083SOL     OW16689   0.733   6.257   6.108 -0.2451  0.0078 -0.4464
 5083SOL    HW116690   0.709   6.347   6.132 -1.2251  0.0960 -1.6918
 5083SOL    HW216691   0.668   6.202   6.151  0.2022 -0.1064  0.1029
 5084SOL     OW16692   7.942   5.553   9.818 -0.3536  0.2012 -0.6089
 5084SOL    HW116693   7.904   5.640   9.805 -0.6055 -0.0229 -1.4577
 5084SOL    HW216694   7.973   5.527   9.731  0.1117 -0.3785 -0.2798
 5085SOL     OW16695   1.927   7.830   9.364 -0.2372  0.3568 -0.1818
 5085SOL    HW116696   1.853   7.848   9.304  0.7343  3.4318 -0.6584
 5085SOL    HW216697   1.995   7.891   9.336  2.2999 -1.8780  0.7043
 5086SOL     OW16698   1.742   6.494   9.472 -0.0364  0.0969  0.1801
 5086SOL    HW116699   1.724   6.485   9.378  0.4095 -1.0755  0.1947
 5086SOL    HW216700   1.672   6.445   9.515  0.0154  0.2563  0.4491
 5087SOL     OW16701   7.465   5.568   8.672 -0.6486 -0.2373  0.3531
 5087SOL    HW116702   7.467   5.507   8.746  2.1181 -0.6182  0.0896
 5087SOL    HW216703   7.542   5.623   8.686 -0.7146  0.4098 -1.6413
 5088SOL     OW16704   0.635   5.955   7.715 -0.0528 -0.0317  0.3347
 5088SOL    HW116705   0.544   5.938   7.692 -0.4749  1.4106  0.8406
 5088SOL    HW216706   0.658   5.885   7.776 -0.7973 -0.4245  0.1741
 5089SOL     OW16707   1.314   1.434   9.048  0.2791  0.0517 -0.3966
 5089SOL    HW116708   1.379   1.492   9.006  0.0865  1.1125  0.7168
 5089SOL    HW216709   1.335   1.439   9.141  0.0290 -1.4368 -0.2408
 5090SOL     OW16710   1.860   5.800   9.954  0.2783 -0.0109 -0.1893
 5090SOL    HW116711   1.852   5.721  10.007  0.1694  0.1199 -0.0128
 5090SOL    HW216712   1.775   5.811   9.913  0.1707  0.2382  0.0989
 5091SOL     OW16713   6.868   6.008   6.074  0.0777 -0.2246 -0.0739
 5091SOL    HW116714   6.854   6.006   6.169 -0.2534  1.4366 -0.0608
 5091SOL    HW216715   6.786   5.975   6.037 -0.0368 -0.2439  0.1983
 5092SOL     OW16716   1.084   0.380   7.617 -0.2217 -0.0148  0.2783
 5092SOL    HW116717   1.051   0.465   7.645 -0.6309 -0.2587  0.5476
 5092SOL    HW216718   1.049   0.318   7.681 -1.5289 -0.6370 -1.0006
 5093SOL     OW16719   1.356   7.794   9.254 -0.3274  0.1558  0.0296
 5093SOL    HW116720   1.289   7.734   9.221  1.0432 -1.2991 -0.2635
 5093SOL    HW216721   1.359   7.864   9.189 -0.2482 -0.7594 -0.9937
 5094SOL     OW16722   6.105   0.150   7.374 -0.3092  0.2427  0.2980
 5094SOL    HW116723   6.171   0.220   7.376 -0.0801  0.0265  1.8028
 5094SOL    HW216724   6.106   0.115   7.463  0.0222 -2.0917 -0.5777
 5095SOL     OW16725   0.962   6.759   7.523  0.0511  0.2185  0.0665
 5095SOL    HW116726   0.884   6.781   7.473 -0.5321  2.0308  1.6338
 5095SOL    HW216727   1.029   6.742   7.457 -1.2271  0.3299 -1.3046
 5096SOL     OW16728   1.054   6.991   8.914  0.1454 -0.2625  0.0226
 5096SOL    HW116729   1.090   6.931   8.849  0.8087 -0.6752  0.7597
 5096SOL    HW216730   1.020   7.064   8.862  0.8175 -0.5021 -0.7804
 5097SOL     OW16731   2.120   6.735   8.240  0.0698  0.2422  0.3012
 5097SOL    HW116732   2.139   6.643   8.227  2.6491  0.6870  0.4456
 5097SOL    HW216733   2.151   6.777   8.159 -0.6898  1.0323  0.4053
 5098SOL     OW16734   7.375   6.420   7.984  0.0618  0.1345  0.1718
 5098SOL    HW116735   7.364   6.502   7.935  0.7718  0.3505  0.3661
 5098SOL    HW216736   7.416   6.447   8.066 -0.1213 -0.3656  0.4307
 5099SOL     OW16737   1.885   6.885   8.763 -0.0117  0.7432  1.1158
 5099SOL    HW116738   1.934   6.956   8.722  1.8165 -1.8410 -1.6997
 5099SOL    HW216739   1.824   6.856   8.695  1.3182 -2.0891  0.9557
 5100SOL     OW16740   2.288   6.578   6.956 -0.2935  0.3193  0.1932
 5100SOL    HW116741   2.377   6.600   6.928 -0.3082  0.7070  0.4532
 5100SOL    HW216742   2.234   6.591   6.877 -0.1059 -0.0292  0.0042
 5101SOL     OW16743   6.289   6.860   7.182 -0.1900  0.5522 -0.3345
 5101SOL    HW116744   6.329   6.773   7.180 -1.9854 -0.3034 -1.2599
 5101SOL    HW216745   6.277   6.883   7.090 -0.8901  1.2221 -0.0885
 5102SOL     OW16746   7.662   7.077   7.523  0.0578 -0.1652  0.0982
 5102SOL    HW116747   7.578   7.037   7.545  1.1374 -2.5358  0.2721
 5102SOL    HW216748   7.666   7.074   7.427  0.9047 -2.3692  0.1483
 5103SOL     OW16749   0.974   1.873  10.324 -1.0432  0.0840 -0.0976
 5103SOL    HW116750   1.021   1.925  10.389  0.5520  0.3904 -1.4155
 5103SOL    HW216751   0.979   1.783  10.357  0.8903  0.0493 -0.3899
 5104SOL     OW16752   1.251   7.791   7.675 -0.1053 -0.2521 -0.5998
 5104SOL    HW116753   1.299   7.785   7.592 -0.1113  2.2133 -0.8312
 5104SOL    HW216754   1.315   7.763   7.741  1.6742  2.5935 -0.9378
 5105SOL     OW16755   0.531   7.165   8.696 -0.1422 -0.0429  0.1379
 5105SOL    HW116756   0.450   7.115   8.703 -0.0473 -0.4719 -1.3264
 5105SOL    HW216757   0.506   7.247   8.652  0.5419 -1.2804 -2.8108
 5106SOL     OW16758   7.607   7.822   8.323  0.9635  0.2362 -0.2968
 5106SOL    HW116759   7.539   7.888   8.336  0.8154 -0.0907  0.6344
 5106SOL    HW216760   7.582   7.777   8.242 -0.4710 -0.5277  0.5373
 5107SOL     OW16761   1.988   0.536   7.861  0.0930 -0.3644  0.0443
 5107SOL    HW116762   2.005   0.465   7.798 -0.5281  1.1243 -1.9299
 5107SOL    HW216763   2.051   0.604   7.837 -1.4329  0.9961 -0.2830
 5108SOL     OW16764   6.159   6.228   8.641  0.2089 -0.0409 -0.0906
 5108SOL    HW116765   6.163   6.180   8.723 -1.6196  0.2345  0.1920
 5108SOL    HW216766   6.220   6.182   8.583  2.5098  0.5094  1.7528
 5109SOL     OW16767   2.439   0.793   9.338  0.4180  0.2768  0.3495
 5109SOL    HW116768   2.379   0.867   9.328  1.5531  1.0080 -1.3485
 5109SOL    HW216769   2.504   0.824   9.402  0.9363  0.7988 -0.4169
 5110SOL     OW16770   1.418   6.425   7.797  0.1724 -0.0250  0.0105
 5110SOL    HW116771   1.452   6.359   7.858 -2.0978  0.0451  1.4751
 5110SOL    HW216772   1.459   6.506   7.825  1.6384 -0.4937 -0.6820
 5111SOL     OW16773   1.304   6.867   9.245  0.3783 -0.1740  0.0091
 5111SOL    HW116774   1.231   6.928   9.256 -0.4774 -1.4574  2.0135
 5111SOL    HW216775   1.324   6.871   9.152 -2.4165  0.0742 -0.6782
 5112SOL     OW16776   0.891   5.877  10.156 -0.1144  0.4531  0.3138
 5112SOL    HW116777   0.892   5.838  10.243  0.5925  0.9908  0.5531
 5112SOL    HW216778   0.872   5.803  10.097 -1.4598  0.2360  0.9714
 5113SOL     OW16779   7.673   0.302   8.534 -0.1203 -0.4130  0.1630
 5113SOL    HW116780   7.667   0.259   8.449  1.7063 -0.0237 -0.2097
 5113SOL    HW216781   7.762   0.285   8.563 -0.3079  0.5702  1.3897
 5114SOL     OW16782   0.721   6.756   9.138 -0.3684 -0.2695 -0.3634
 5114SOL    HW116783   0.647   6.778   9.194 -0.6509 -1.4118 -0.2635
 5114SOL    HW216784   0.691   6.680   9.088 -0.1595  0.7652 -2.1494
 5115SOL     OW16785   2.995   5.979  10.216  0.1486 -0.3977  0.3041
 5115SOL    HW116786   3.075   5.928  10.234  0.8343  0.7020  0.4629
 5115SOL    HW216787   3.017   6.031  10.139 -0.4848 -0.2180  0.2425
 5116SOL     OW16788   2.245   7.383   9.915  0.2831  0.3644 -0.1859
 5116SOL    HW116789   2.325   7.431   9.896  0.9782 -0.3202  0.8937
 5116SOL    HW216790   2.201   7.433   9.983  0.5746 -0.0581  0.3213
 5117SOL     OW16791   0.310   6.155   8.977 -0.2706 -0.4255  0.1227
 5117SOL    HW116792   0.288   6.236   9.022 -0.3098 -0.6426  0.5004
 5117SOL    HW216793   0.406   6.154   8.973 -0.2079 -1.0089  1.3463
 5118SOL     OW16794   0.131   3.591   9.461  0.3351  0.0222  0.6114
 5118SOL    HW116795   0.073   3.665   9.475 -0.6684 -0.5490 -0.3479
 5118SOL    HW216796   0.086   3.517   9.503  0.3039 -0.4392 -0.2039
 5119SOL     OW16797   7.390   6.349   5.815  0.1657  0.1253 -0.2187
 5119SOL    HW116798   7.379   6.444   5.812 -2.3184 -0.0943  0.0055
 5119SOL    HW216799   7.312   6.318   5.860 -0.7345 -2.2790 -3.1615
 5120SOL     OW16800   7.032   7.019   7.662  0.0818 -0.3387 -0.1012
 5120SOL    HW116801   7.098   7.039   7.728 -0.2461 -3.5230  1.3870
 5120SOL    HW216802   7.020   6.924   7.668 -3.7687 -0.0935 -1.0968
 5121SOL     OW16803   0.530   6.596   8.225 -0.4400 -0.4736  0.2747
 5121SOL    HW116804   0.503   6.523   8.169  0.5978 -1.1633  0.6664
 5121SOL    HW216805   0.459   6.660   8.215 -0.7660 -1.0055 -1.0313
 5122SOL     OW16806   2.315   7.423  10.419  0.3832 -0.4726  0.6116
 5122SOL    HW116807   2.389   7.368  10.448 -1.2664 -2.6033  1.0678
 5122SOL    HW216808   2.267   7.441  10.500 -1.9356 -2.8680 -0.0892
 5123SOL     OW16809   0.565   6.917   7.233  0.4362  0.3272 -0.3616
 5123SOL    HW116810   0.487   6.864   7.245  0.2865  0.6591  0.1892
 5123SOL    HW216811   0.588   6.906   7.141 -0.5714  0.6515 -0.6661
 5124SOL     OW16812   1.116   5.239   6.732  0.2570 -0.3861  0.3437
 5124SOL    HW116813   1.201   5.197   6.746  0.8271  0.9892  1.2557
 5124SOL    HW216814   1.099   5.228   6.638  0.3598 -2.5842  0.5271
 5125SOL     OW16815   3.068   7.086   6.953 -0.2426  0.1395  0.0616
 5125SOL    HW116816   3.113   7.133   7.023 -0.4693  1.0923 -0.4208
 5125SOL    HW216817   3.009   7.026   6.999  0.8113 -0.4430  0.6915
 5126SOL     OW16818   0.743   6.710   7.370 -0.1073 -0.1422  0.0323
 5126SOL    HW116819   0.669   6.769   7.356  0.0847 -0.1886 -1.3641
 5126SOL    HW216820   0.712   6.625   7.339 -0.0118 -0.5430  1.0043
 5127SOL     OW16821   7.780   6.822   9.417 -0.1341  0.4347  0.2498
 5127SOL    HW116822   7.721   6.863   9.481 -2.5548 -2.3800  0.0309
 5127SOL    HW216823   7.817   6.746   9.463  0.4201  0.0594 -0.7834
 5128SOL     OW16824   6.702   5.878   9.696 -0.1391 -0.3479  0.0786
 5128SOL    HW116825   6.635   5.930   9.652  0.6275  0.2434 -0.3933
 5128SOL    HW216826   6.756   5.942   9.742  0.2857 -0.8047  0.2225
 5129SOL     OW16827   0.325   6.659   7.820 -0.2764  0.0547  0.2383
 5129SOL    HW116828   0.383   6.584   7.804  0.4134  1.0100 -2.0692
 5129SOL    HW216829   0.237   6.622   7.816  0.0691 -0.8425  0.4825
 5130SOL     OW16830   0.602   5.881   8.290 -0.0925 -0.0577  0.8066
 5130SOL    HW116831   0.655   5.864   8.213 -0.7970  0.0166  0.2952
 5130SOL    HW216832   0.536   5.944   8.260 -0.1756  0.2238  1.5516
 5131SOL     OW16833   0.782   7.505   7.656  0.7037 -0.0235  0.3391
 5131SOL    HW116834   0.831   7.459   7.588  1.2708  0.4206  0.4439
 5131SOL    HW216835   0.837   7.500   7.734 -0.2610 -1.1623  0.9851
 5132SOL     OW16836   0.165   5.015   8.709  0.4161  0.3847  0.6664
 5132SOL    HW116837   0.212   5.094   8.736 -1.0813  1.3227  0.6503
 5132SOL    HW216838   0.230   4.963   8.663  1.1588  2.2247 -0.5010
 5133SOL     OW16839   0.652   6.089   8.054 -0.2406 -0.5678  0.0226
 5133SOL    HW116840   0.697   6.009   8.030  0.3930  0.1300 -1.2074
 5133SOL    HW216841   0.721   6.155   8.058 -0.8697  0.1049  0.1041
 5134SOL     OW16842   7.048   5.931   8.137 -0.2245  0.1528  0.7873
 5134SOL    HW116843   6.987   6.001   8.160  0.4569  0.4235  1.8383
 5134SOL    HW216844   7.133   5.962   8.168  0.4102 -0.3397 -0.4001
 5135SOL     OW16845   1.393   6.873   8.960  0.1588  0.1752 -0.3724
 5135SOL    HW116846   1.477   6.827   8.967 -0.1578 -0.1508  2.7429
 5135SOL    HW216847   1.417   6.963   8.936  1.3020 -0.1820 -0.6207
 5136SOL     OW16848   1.258   5.716   9.544  0.6248 -0.6865 -0.8094
 5136SOL    HW116849   1.238   5.630   9.509  2.6361 -0.7097 -2.0672
 5136SOL    HW216850   1.299   5.699   9.629  0.9944 -0.9836 -1.0440
 5137SOL     OW16851   6.701   7.202   7.291 -0.7673  0.0753  0.6303
 5137SOL    HW116852   6.609   7.222   7.270 -0.2953  0.2590 -1.4786
 5137SOL    HW216853   6.706   7.106   7.289 -0.6639  0.0883 -0.6029
 5138SOL     OW16854   7.847   4.431   8.381  0.1159  1.2701  0.1834
 5138SOL    HW116855   7.908   4.357   8.366 -0.3104  1.0088 -0.3105
 5138SOL    HW216856   7.893   4.487   8.443  1.3107  1.5840 -0.9349
 5139SOL     OW16857   1.619   5.217   9.116 -0.5345  0.0725 -0.2062
 5139SOL    HW116858   1.635   5.308   9.088  1.4591 -0.1886 -0.0539
 5139SOL    HW216859   1.639   5.164   9.039  1.2913 -0.3962  0.5307
 5140SOL     OW16860   1.324   5.520   7.869 -0.2456  0.0909  0.4775
 5140SOL    HW116861   1.392   5.560   7.923  0.3810 -0.4388  0.0930
 5140SOL    HW216862   1.354   5.431   7.854 -0.9400 -0.0993  0.1505
 5141SOL     OW16863   0.375   6.117  11.080  0.0310  0.2434  0.3282
 5141SOL    HW116864   0.342   6.101  11.169  0.4757 -1.7486  0.1672
 5141SOL    HW216865   0.307   6.082  11.022  1.0511 -1.2216 -0.0437
 5142SOL     OW16866   1.090   7.790   8.504  0.0149  0.3165  0.3791
 5142SOL    HW116867   1.138   7.870   8.481 -0.4770  0.0604 -1.7906
 5142SOL    HW216868   1.011   7.793   8.450  0.1414 -1.7701 -0.0074
 5143SOL     OW16869   0.948   4.993   7.293 -0.5403 -0.2286  0.7286
 5143SOL    HW116870   0.962   5.036   7.378  0.2134  0.1423  0.4284
 5143SOL    HW216871   1.036   4.963   7.268 -0.9954 -1.7512  0.8202
 5144SOL     OW16872   1.039   7.464   8.523  0.3426 -0.3925 -0.1382
 5144SOL    HW116873   0.976   7.471   8.595  0.4627  0.1553 -0.0808
 5144SOL    HW216874   1.078   7.551   8.517  1.0253 -0.7033 -0.2397
 5145SOL     OW16875   0.493   6.582   9.757  0.0567 -0.1413  0.0409
 5145SOL    HW116876   0.476   6.581   9.851 -2.0302 -1.8691 -0.2706
 5145SOL    HW216877   0.456   6.665   9.726  1.1788  0.6593  0.7534
 5146SOL     OW16878   0.425   5.280   6.980  0.1071  0.0032 -0.0277
 5146SOL    HW116879   0.510   5.323   6.993  1.2211 -2.3324  0.8437
 5146SOL    HW216880   0.369   5.316   7.049  0.7798  0.5481  0.2404
 5147SOL     OW16881   6.859   7.413   7.375 -0.3738 -0.0513 -0.4112
 5147SOL    HW116882   6.931   7.350   7.380 -0.2017  0.0522 -1.3345
 5147SOL    HW216883   6.787   7.364   7.335 -0.6393  0.0034 -0.0068
 5148SOL     OW16884   1.849   5.217   9.263 -0.1149 -0.2249 -0.0402
 5148SOL    HW116885   1.759   5.231   9.235  0.0093 -0.3972 -0.5310
 5148SOL    HW216886   1.902   5.262   9.196  0.1037  1.7176  1.3601
 5149SOL     OW16887   1.236   6.371   6.480 -0.3215 -0.1047 -0.1941
 5149SOL    HW116888   1.243   6.302   6.546 -2.3550 -0.7907 -0.6201
 5149SOL    HW216889   1.304   6.434   6.504  1.1765 -1.9352  0.5725
 5150SOL     OW16890   2.917   4.471  10.321  0.3644 -0.0899 -0.3725
 5150SOL    HW116891   2.958   4.522  10.390 -0.0721  1.9894 -1.5663
 5150SOL    HW216892   2.956   4.504  10.240 -0.5715 -1.0429 -1.2510
 5151SOL     OW16893   0.635   6.336   6.409 -0.3555 -0.2936  0.0803
 5151SOL    HW116894   0.558   6.385   6.439  0.0754  0.9344 -0.7412
 5151SOL    HW216895   0.600   6.268   6.352 -1.0926 -1.9657  2.3673
 5152SOL     OW16896   7.623   6.938   9.596  0.3606 -0.3545  0.0125
 5152SOL    HW116897   7.550   6.878   9.582  2.4511 -2.6887 -1.8540
 5152SOL    HW216898   7.647   6.924   9.687 -1.0539 -0.0662  0.4578
 5153SOL     OW16899   7.941   0.601   7.986 -0.4337  0.0220 -0.2711
 5153SOL    HW116900   8.032   0.628   7.998 -0.9265  1.2634  1.0411
 5153SOL    HW216901   7.942   0.543   7.910  1.1340  1.6131 -1.5408
 5154SOL     OW16902   0.209   5.042   7.887  0.1494 -0.2052  0.0344
 5154SOL    HW116903   0.137   5.064   7.947 -0.4915  0.8844 -1.0992
 5154SOL    HW216904   0.171   4.977   7.828  0.3801 -0.2969 -0.0140
 5155SOL     OW16905   1.492   4.749   8.846  0.2467 -0.1789 -0.3431
 5155SOL    HW116906   1.468   4.783   8.933  2.4921  2.6632 -0.6955
 5155SOL    HW216907   1.413   4.703   8.816 -1.6968  1.4547  1.8893
 5156SOL     OW16908   0.903   5.595  11.464  0.2687 -0.1193  0.4696
 5156SOL    HW116909   0.910   5.533  11.536  0.1367  0.4424  0.9788
 5156SOL    HW216910   0.965   5.564  11.398  0.7509 -0.3643  1.0315
 5157SOL     OW16911   7.319   5.722   7.790 -0.2107 -0.1230  0.0200
 5157SOL    HW116912   7.352   5.642   7.830  2.5281  1.2852  0.7855
 5157SOL    HW216913   7.247   5.749   7.848 -0.0444 -1.1022  0.7084
 5158SOL     OW16914   0.018   4.829   7.214  0.2138  0.0352  0.0207
 5158SOL    HW116915  -0.011   4.920   7.203 -1.3732 -0.5078 -0.4576
 5158SOL    HW216916  -0.045   4.777   7.165  0.0722 -1.4837  1.6881
 5159SOL     OW16917   1.398   6.336   9.195 -0.1763  0.1044 -0.2880
 5159SOL    HW116918   1.432   6.415   9.154 -0.1378  0.1561 -0.1546
 5159SOL    HW216919   1.403   6.270   9.125 -0.6159  0.3200 -0.5298
 5160SOL     OW16920   0.038   4.774   8.784 -0.0065 -0.1059 -0.1071
 5160SOL    HW116921   0.103   4.844   8.779  0.6332 -0.7618 -1.6495
 5160SOL    HW216922   0.050   4.735   8.871  0.8081  0.5814  0.0964
 5161SOL     OW16923   1.596   6.471   8.438  0.4820 -0.0300  0.2285
 5161SOL    HW116924   1.604   6.566   8.444  1.9489 -0.0052 -1.2472
 5161SOL    HW216925   1.680   6.437   8.470  0.2857 -0.7767 -0.0197
 5162SOL     OW16926   0.710   5.730   6.657 -0.0296  0.0758 -0.5492
 5162SOL    HW116927   0.714   5.634   6.666 -0.0481 -0.0152 -1.4212
 5162SOL    HW216928   0.796   5.754   6.622  0.5516  0.5661  1.1632
 5163SOL     OW16929   2.664   7.522  10.483  0.0782 -0.0087 -0.2885
 5163SOL    HW116930   2.747   7.566  10.464  0.1111  0.2714  0.4394
 5163SOL    HW216931   2.641   7.477  10.402  0.9383 -0.0824 -0.5038
 5164SOL     OW16932   7.616   6.535   6.917  0.0365 -0.5014  0.4508
 5164SOL    HW116933   7.630   6.440   6.920 -2.1500 -0.8524  0.5920
 5164SOL    HW216934   7.585   6.558   7.005  2.6364  0.7731  1.1397
 5165SOL     OW16935   0.210   5.871   9.623  0.0447  0.0311  0.4370
 5165SOL    HW116936   0.234   5.827   9.705  2.2340  1.8909  0.8829
 5165SOL    HW216937   0.282   5.853   9.563 -1.1282 -0.5750 -0.8642
 5166SOL     OW16938   5.486   7.776   7.129  0.2704 -0.0756  0.0140
 5166SOL    HW116939   5.547   7.717   7.085 -0.7015  0.2445 -1.8615
 5166SOL    HW216940   5.516   7.864   7.105 -1.7821  0.0910 -2.3361
 5167SOL     OW16941   0.567   6.196   8.577 -0.0080 -0.3283 -0.2935
 5167SOL    HW116942   0.533   6.109   8.594 -0.8233  0.2649  1.2862
 5167SOL    HW216943   0.497   6.241   8.529  0.6819 -0.7331 -1.7183
 5168SOL     OW16944   1.444   6.018   8.325  0.3789  0.6752  0.3201
 5168SOL    HW116945   1.440   6.085   8.393  0.0071  2.7730 -1.6417
 5168SOL    HW216946   1.352   5.997   8.306  0.3772  1.7008 -0.9498
 5169SOL     OW16947   7.357   0.937   8.497  0.3250  0.4328  0.1210
 5169SOL    HW116948   7.293   0.925   8.427 -0.4446 -0.5328  0.9598
 5169SOL    HW216949   7.441   0.946   8.452 -0.0747 -0.7627 -0.9149
 5170SOL     OW16950   1.019   4.193   9.316  0.4757 -0.3195  0.2891
 5170SOL    HW116951   1.021   4.101   9.342 -0.7129 -0.1914  0.9129
 5170SOL    HW216952   0.995   4.191   9.223  1.7164 -0.6674 -0.0439
 5171SOL     OW16953   7.006   5.573  10.309 -0.0334  0.3162 -0.4880
 5171SOL    HW116954   6.964   5.488  10.327 -0.1520 -0.0289 -2.2341
 5171SOL    HW216955   6.980   5.628  10.383  0.2327 -1.2145  0.8136
 5172SOL     OW16956   0.482   5.927   8.605  0.2000  0.4962 -0.1477
 5172SOL    HW116957   0.483   5.923   8.701 -0.0538  1.4211 -0.0933
 5172SOL    HW216958   0.494   5.837   8.577  1.5340  0.3638  0.7530
 5173SOL     OW16959   7.343   5.091   8.634  0.8219 -0.5857 -0.2650
 5173SOL    HW116960   7.304   5.047   8.558  1.6445 -0.9807 -0.4734
 5173SOL    HW216961   7.410   5.030   8.664  0.5713 -0.3859  0.7273
 5174SOL     OW16962   0.607   0.246   7.805  0.5178  0.7136 -0.0593
 5174SOL    HW116963   0.525   0.218   7.764  0.1149  2.1304 -0.2616
 5174SOL    HW216964   0.655   0.290   7.734  1.0562  0.6892  0.2842
 5175SOL     OW16965   1.186   5.967   8.208 -0.1041  0.0818  0.6476
 5175SOL    HW116966   1.161   5.910   8.281  1.4548  0.7131  1.7373
 5175SOL    HW216967   1.123   6.039   8.210  0.7216  0.8095  2.2874
 5176SOL     OW16968   0.379   0.515   7.954  0.2497  0.5550 -0.3635
 5176SOL    HW116969   0.417   0.438   7.996 -0.1699  1.4158  1.7260
 5176SOL    HW216970   0.454   0.570   7.931  0.4959 -0.0464 -1.0597
 5177SOL     OW16971   7.905   0.036   7.264 -0.1297  0.1092 -0.2046
 5177SOL    HW116972   7.825  -0.017   7.267 -0.2514  0.3520  2.2649
 5177SOL    HW216973   7.903   0.076   7.177 -2.6431  0.0315 -0.2541
 5178SOL     OW16974   0.010   7.513   7.940 -0.0954  0.3081  0.3793
 5178SOL    HW116975   0.042   7.466   7.863 -2.5373  2.1354 -1.9631
 5178SOL    HW216976  -0.084   7.492   7.944 -0.6935  2.7382  0.8518
 5179SOL     OW16977   0.109   7.307   7.728  0.5128  0.5005 -0.2564
 5179SOL    HW116978   0.114   7.239   7.796  0.7483  1.0501  0.2882
 5179SOL    HW216979   0.180   7.286   7.667 -0.8029 -1.0286 -1.3230
 5180SOL     OW16980   0.894   7.057   8.240 -0.8489 -0.0546  0.4039
 5180SOL    HW116981   0.956   6.987   8.220  0.8921  2.0940 -2.4416
 5180SOL    HW216982   0.933   7.103   8.315 -0.2820 -0.1775  0.1883
 5181SOL     OW16983   7.019   5.340   9.525 -0.2038  0.0492  0.3815
 5181SOL    HW116984   7.071   5.394   9.466  0.7180  0.3277  1.4216
 5181SOL    HW216985   7.079   5.272   9.557 -0.8575 -0.4966  0.5049
 5182SOL     OW16986   1.715   7.286   8.619  0.3245  0.6100 -0.0290
 5182SOL    HW116987   1.739   7.312   8.530  1.0207  0.8477  0.2231
 5182SOL    HW216988   1.633   7.333   8.636  0.6144  1.1982 -0.2477
 5183SOL     OW16989   0.727   0.367  10.632 -0.3059 -0.6221  0.5555
 5183SOL    HW116990   0.656   0.407  10.582 -0.8053 -2.1246  0.0169
 5183SOL    HW216991   0.692   0.358  10.721 -0.3785 -0.3401  0.5562
 5184SOL     OW16992   3.314   5.605   9.212 -0.1288 -0.8464 -0.0409
 5184SOL    HW116993   3.343   5.691   9.243  0.5348 -1.5085  1.2741
 5184SOL    HW216994   3.231   5.622   9.167  0.4992  0.6002 -0.7051
 5185SOL     OW16995   1.849   6.898   8.314  0.4527  0.2977 -0.4946
 5185SOL    HW116996   1.897   6.965   8.363 -0.6744  0.4760  0.3936
 5185SOL    HW216997   1.916   6.835   8.287  0.9610 -0.5893  2.5091
 5186SOL     OW16998   7.967   6.229  10.147  0.1853 -0.6239  0.0459
 5186SOL    HW116999   8.008   6.251  10.063 -0.7321 -0.6530 -0.4187
 5186SOL    HW217000   8.023   6.271  10.212  0.8355 -0.4855 -0.5829
 5187SOL     OW17001   7.735   5.084   9.151  0.5574 -0.0254  0.0211
 5187SOL    HW117002   7.657   5.122   9.111  0.6644  0.8593  0.6220
 5187SOL    HW217003   7.710   4.994   9.171 -0.1278  0.0906 -0.2900
 5188SOL     OW17004   1.039   4.480   8.376  0.3810  0.2352  0.4555
 5188SOL    HW117005   0.974   4.469   8.446 -1.6222 -1.0710 -1.4600
 5188SOL    HW217006   1.073   4.392   8.360  1.6542  0.6975  0.5052
 5189SOL     OW17007   0.605   6.799  10.811  0.4445 -0.4651 -0.4880
 5189SOL    HW117008   0.680   6.762  10.856  0.1094  1.0081  1.4221
 5189SOL    HW217009   0.590   6.883  10.854 -1.3621 -0.0216 -1.8366
 5190SOL     OW17010   1.093   5.424   8.853 -0.1902  0.3495  0.6604
 5190SOL    HW117011   1.183   5.426   8.884  0.4569 -1.5036 -0.9623
 5190SOL    HW217012   1.052   5.501   8.893  2.2931  1.6820  0.7741
 5191SOL     OW17013   1.704   6.862   9.608  0.6498 -0.0232  0.0827
 5191SOL    HW117014   1.679   6.800   9.676  0.0476  0.1951  0.0619
 5191SOL    HW217015   1.622   6.891   9.569  0.9633  0.2156 -0.4221
 5192SOL     OW17016   6.430   5.875   8.779  0.0052  0.3431 -0.3485
 5192SOL    HW117017   6.496   5.809   8.799  0.3000  0.0350 -2.1971
 5192SOL    HW217018   6.477   5.943   8.731 -0.4723  1.5105  0.7707
 5193SOL     OW17019   1.542   6.035   7.793 -0.3387 -0.0287  0.0303
 5193SOL    HW117020   1.513   6.081   7.873 -1.2848 -0.0022 -0.3064
 5193SOL    HW217021   1.476   5.966   7.781  0.1465 -0.4167 -0.3915
 5194SOL     OW17022   1.859   6.166   7.567  0.3540  0.1457 -0.7261
 5194SOL    HW117023   1.841   6.211   7.649  1.9814 -3.1284  1.6315
 5194SOL    HW217024   1.950   6.187   7.546  0.3361 -0.0360 -1.0051
 5195SOL     OW17025   7.915   7.044  10.158 -0.0108 -0.4970 -0.2604
 5195SOL    HW117026   7.942   6.991  10.082 -0.3015  1.1458 -1.5733
 5195SOL    HW217027   7.911   7.133  10.124 -0.9098  0.1794  1.5203
 5196SOL     OW17028   1.480   6.176   8.990 -0.3985 -0.7386 -0.2204
 5196SOL    HW117029   1.523   6.213   8.913  1.6661 -0.2113  1.1194
 5196SOL    HW217030   1.545   6.118   9.029 -2.0604 -2.4559  0.1331
 5197SOL     OW17031   0.383   6.324   8.441  0.1387 -0.3552 -0.1746
 5197SOL    HW117032   0.425   6.392   8.389  0.5844 -1.5508 -1.4387
 5197SOL    HW217033   0.289   6.339   8.429  0.2343 -0.0290 -0.5203
 5198SOL     OW17034   1.009   5.909   7.836  0.5239 -0.4522 -0.1334
 5198SOL    HW117035   0.925   5.879   7.872  0.4873  0.5790  0.6734
 5198SOL    HW217036   1.057   5.828   7.818  1.1229 -1.1036  3.5853
 5199SOL     OW17037   7.868   4.717   9.660 -0.1184 -0.7920  0.0137
 5199SOL    HW117038   7.849   4.654   9.729  3.2133 -0.4658  1.4641
 5199SOL    HW217039   7.887   4.664   9.583  0.8458 -1.5152  0.7185
 5200SOL     OW17040   0.617   4.859   8.250 -0.1070  0.1679 -0.3102
 5200SOL    HW117041   0.583   4.882   8.163  0.1023 -2.8217 -1.3209
 5200SOL    HW217042   0.539   4.834   8.300 -0.0506 -0.0129 -0.3112
 5201SOL     OW17043   7.432   6.570   7.331  0.3366 -0.3336 -0.1892
 5201SOL    HW117044   7.408   6.511   7.403  1.5078 -1.4947 -0.7196
 5201SOL    HW217045   7.355   6.570   7.274 -0.8364  1.0616  1.3152
 5202SOL     OW17046   6.983   5.479   8.877 -0.1373  0.4013  0.1180
 5202SOL    HW117047   6.999   5.553   8.818 -2.6628  0.1397 -1.0396
 5202SOL    HW217048   6.951   5.409   8.820 -0.6313 -0.5828  1.5566
 5203SOL     OW17049   1.264   6.379  10.867 -0.2418 -0.4679 -0.4981
 5203SOL    HW117050   1.184   6.328  10.860 -0.3179 -0.3591 -0.4242
 5203SOL    HW217051   1.242   6.451  10.926 -1.4505  2.1575 -3.8205
 5204SOL     OW17052   1.553   6.315  10.428  0.0533  0.3356  0.2244
 5204SOL    HW117053   1.639   6.282  10.406 -0.8066 -0.4863 -2.2817
 5204SOL    HW217054   1.552   6.320  10.523  2.9083  0.6194  0.3160
 5205SOL     OW17055   1.025   6.737   8.420  0.4393  0.4580  0.0208
 5205SOL    HW117056   1.092   6.699   8.476 -0.2507 -0.0441  0.5235
 5205SOL    HW217057   1.074   6.783   8.352  1.3542 -2.0602 -1.1545
 5206SOL     OW17058   7.708   7.608   7.228  0.1781  0.2144 -0.1733
 5206SOL    HW117059   7.627   7.659   7.233  1.5863  2.6175 -0.3144
 5206SOL    HW217060   7.706   7.568   7.141 -1.7112 -1.4345  0.5434
 5207SOL     OW17061   7.551   6.782   5.873  0.3346 -0.2024 -0.1693
 5207SOL    HW117062   7.579   6.779   5.781  0.3766 -0.7360 -0.1453
 5207SOL    HW217063   7.517   6.694   5.890 -2.2584  0.6559 -0.4719
 5208SOL     OW17064   1.850   5.187   8.442 -0.5049  0.0738  0.1434
 5208SOL    HW117065   1.863   5.251   8.512 -0.2983  0.4572 -0.2387
 5208SOL    HW217066   1.864   5.102   8.483  0.9877  0.3579  0.2656
 5209SOL     OW17067   0.916   6.697   9.593 -0.0132 -0.3858 -0.2374
 5209SOL    HW117068   0.888   6.686   9.502  0.1290 -0.2911 -0.2947
 5209SOL    HW217069   0.839   6.729   9.639 -0.9117 -3.0219  0.2625
 5210SOL     OW17070   0.318   6.470   9.031  0.2333  0.3518  0.3420
 5210SOL    HW117071   0.314   6.565   9.018 -0.1338  0.1555 -1.1430
 5210SOL    HW217072   0.323   6.434   8.942  1.5285 -0.9780  0.9255
 5211SOL     OW17073   1.641   5.694   8.373  0.4065 -0.2572  0.1731
 5211SOL    HW117074   1.670   5.625   8.433 -2.0423 -1.9492 -0.4335
 5211SOL    HW217075   1.578   5.745   8.423  0.2115 -0.1295 -0.1958
 5212SOL     OW17076   7.904   6.120   6.624  0.5059 -0.6891 -0.1128
 5212SOL    HW117077   7.969   6.086   6.562 -0.2488 -1.2819 -0.6146
 5212SOL    HW217078   7.838   6.162   6.568  0.9347  0.7621  0.4518
 5213SOL     OW17079   2.406   5.085   8.934 -0.1221 -0.6784  0.1748
 5213SOL    HW117080   2.423   5.068   9.027 -0.6206 -1.1865  0.1718
 5213SOL    HW217081   2.323   5.041   8.916 -1.4573  1.6681  0.1675
 5214SOL     OW17082   2.681   0.868   9.814 -0.0746  0.6951 -0.1612
 5214SOL    HW117083   2.704   0.805   9.883  0.2712 -0.0942 -0.9787
 5214SOL    HW217084   2.594   0.900   9.840 -1.0252 -1.3650 -0.5520
 5215SOL     OW17085   7.999   4.596   8.009 -0.0777  0.2611 -0.6733
 5215SOL    HW117086   7.920   4.650   8.007 -0.6577 -0.4932  0.4976
 5215SOL    HW217087   8.021   4.591   8.102 -0.4487 -2.0618 -0.6553
 5216SOL     OW17088   2.422   0.566   8.744 -0.4171  0.0445 -0.1414
 5216SOL    HW117089   2.363   0.561   8.669 -1.9540  0.2413  1.0166
 5216SOL    HW217090   2.480   0.640   8.724 -1.3505  0.6287 -0.7767
 5217SOL     OW17091   7.284   5.520   9.012 -0.6892  0.7844  0.5532
 5217SOL    HW117092   7.212   5.521   9.075 -0.9503  0.9110  0.2515
 5217SOL    HW217093   7.360   5.496   9.064 -1.2739 -1.2928  0.5535
 5218SOL     OW17094   7.089   6.724   8.001  0.0456 -0.1598  0.1212
 5218SOL    HW117095   6.993   6.724   7.999  0.0234 -1.6805 -0.1203
 5218SOL    HW217096   7.112   6.660   8.067  0.9068  0.0203  0.0100
 5219SOL     OW17097   0.798   7.029   7.913 -0.2254 -0.6974 -0.1441
 5219SOL    HW117098   0.797   6.949   7.967  2.8199 -0.1199  1.0202
 5219SOL    HW217099   0.811   6.998   7.824 -1.4928 -1.5611 -0.0424
 5220SOL     OW17100   0.621   6.842   9.639 -0.2934 -0.3022  0.1057
 5220SOL    HW117101   0.600   6.913   9.578  0.1123 -0.2943 -0.0257
 5220SOL    HW217102   0.625   6.884   9.725 -0.4518 -0.2388  0.0826
 5221SOL     OW17103   0.013   5.558   8.316 -0.0689  0.7204  0.4620
 5221SOL    HW117104   0.025   5.559   8.221 -1.6821  2.4260  0.2118
 5221SOL    HW217105   0.092   5.599   8.351  0.6288 -0.1046 -0.1072
 5222SOL     OW17106   0.637   6.548   9.002 -0.3082  0.1725  0.3813
 5222SOL    HW117107   0.592   6.464   8.998 -0.0149  0.0103 -3.8668
 5222SOL    HW217108   0.577   6.610   8.961  0.7599  1.3495  0.5038
 5223SOL     OW17109   7.239   7.865   9.632  0.4795  0.2059 -0.0646
 5223SOL    HW117110   7.200   7.894   9.715 -0.1291  0.5604 -0.4693
 5223SOL    HW217111   7.330   7.848   9.653  0.3054  0.1990  0.7074
 5224SOL     OW17112   3.088   7.274   9.408 -0.1902 -0.3073  0.0274
 5224SOL    HW117113   3.003   7.304   9.440  0.7308  1.6583  0.8202
 5224SOL    HW217114   3.129   7.232   9.484 -0.5610 -1.6158 -0.4592
 5225SOL     OW17115   2.058   6.105   9.530  0.3565 -0.0940  0.0264
 5225SOL    HW117116   2.082   6.012   9.532 -0.0351 -0.2062 -0.4271
 5225SOL    HW217117   1.979   6.110   9.583 -0.8390 -0.3861 -1.6547
 5226SOL     OW17118   2.067   6.317   7.830 -0.1918  0.5213 -0.1027
 5226SOL    HW117119   2.107   6.233   7.809  0.7071  1.1968 -1.2117
 5226SOL    HW217120   2.083   6.329   7.924  1.8498  0.5465 -0.4133
 5227SOL     OW17121   1.757   5.687   9.512 -0.3237 -0.1852  0.6857
 5227SOL    HW117122   1.798   5.622   9.569 -0.7037 -0.8162  0.2513
 5227SOL    HW217123   1.742   5.763   9.569  2.5003  0.5339  0.5881
 5228SOL     OW17124   7.929   5.534   6.483 -0.0581 -0.5143 -0.1724
 5228SOL    HW117125   7.882   5.463   6.441 -0.8880 -0.1183  0.0537
 5228SOL    HW217126   7.894   5.614   6.442  0.0316 -0.1890  0.3691
 5229SOL     OW17127   2.069   0.346   9.467  0.2314  0.6526  0.1720
 5229SOL    HW117128   2.103   0.418   9.414  0.2366  0.2384 -0.3984
 5229SOL    HW217129   2.017   0.389   9.536 -0.9593  1.1518 -0.9952
 5230SOL     OW17130   1.017   6.068   9.077  0.0521 -0.1641 -0.6253
 5230SOL    HW117131   1.092   6.017   9.046  1.1595  0.8750  0.2417
 5230SOL    HW217132   1.005   6.039   9.168 -0.4497 -0.1490 -0.6868
 5231SOL     OW17133   1.389   6.656   7.585  0.0186 -0.0017  0.4392
 5231SOL    HW117134   1.432   6.711   7.520  1.3356  0.4486  1.6288
 5231SOL    HW217135   1.361   6.717   7.653 -1.3406 -0.4578  0.3211
 5232SOL     OW17136   1.821   5.403   8.604 -0.2962 -0.2955  0.6114
 5232SOL    HW117137   1.870   5.481   8.576 -0.5601 -0.6833 -0.9781
 5232SOL    HW217138   1.853   5.387   8.693  1.5259  0.2356  0.1047
 5233SOL     OW17139   0.831   6.088   9.894 -0.1816  0.4706  0.1255
 5233SOL    HW117140   0.770   6.127   9.957 -0.7837 -0.7153  0.3122
 5233SOL    HW217141   0.841   6.154   9.826  1.6055  2.3881  2.1245
 5234SOL     OW17142   1.561   7.490   6.999 -0.3020  0.2573 -0.0278
 5234SOL    HW117143   1.468   7.484   7.020 -0.3197 -1.5380 -0.4578
 5234SOL    HW217144   1.598   7.407   7.030  0.9896  0.5564 -0.6977
 5235SOL     OW17145   7.684   5.707   8.713  0.3528 -0.2727  0.4825
 5235SOL    HW117146   7.757   5.701   8.651 -0.2526 -1.7419 -0.1203
 5235SOL    HW217147   7.721   5.676   8.796  0.5098 -0.6988  0.2577
 5236SOL     OW17148   0.452   6.424   7.713 -0.3003  0.5144 -0.0074
 5236SOL    HW117149   0.527   6.367   7.728  1.3317  1.7794 -2.6754
 5236SOL    HW217150   0.399   6.378   7.647 -1.3802  0.1084  1.0990
 5237SOL     OW17151   1.505   5.599   7.286  0.2190 -0.2783  0.3313
 5237SOL    HW117152   1.555   5.680   7.297  0.1064 -0.2532  0.6871
 5237SOL    HW217153   1.433   5.623   7.228  1.3330 -0.6315 -1.2638
 5238SOL     OW17154   0.008   6.924   7.489 -0.1207  0.4089  0.0116
 5238SOL    HW117155   0.096   6.925   7.453  0.5084 -1.3249  1.3327
 5238SOL    HW217156  -0.050   6.929   7.413  1.1399 -1.4288 -1.1447
 5239SOL     OW17157   2.143   5.906   8.019  0.3948 -0.2317 -0.0780
 5239SOL    HW117158   2.158   5.857   8.100 -0.5700  0.9249  0.8262
 5239SOL    HW217159   2.065   5.959   8.036 -0.5809 -0.8837 -2.2062
 5240SOL     OW17160   0.201   5.383   8.456  1.3041  0.4626  0.0838
 5240SOL    HW117161   0.275   5.340   8.412  0.3127 -1.0958 -0.1242
 5240SOL    HW217162   0.231   5.473   8.470  2.6144  0.3167 -1.4747
 5241SOL     OW17163   0.384   5.059   9.462 -0.4044 -0.4127 -0.1599
 5241SOL    HW117164   0.336   5.066   9.380 -2.9030 -0.7242  1.1719
 5241SOL    HW217165   0.395   5.150   9.491  0.8595 -0.2765 -0.9892
 5242SOL     OW17166   0.074   7.966   6.694 -0.0363  0.3313 -0.2784
 5242SOL    HW117167   0.039   8.009   6.616 -3.4868 -1.2605  0.2079
 5242SOL    HW217168   0.073   7.873   6.672  1.2127  0.0119  0.8857
 5243SOL     OW17169   2.900   7.128   9.047 -0.1589 -0.2547  0.3453
 5243SOL    HW117170   2.968   7.145   9.112 -0.1523 -1.1205  0.5806
 5243SOL    HW217171   2.831   7.083   9.096 -0.1693 -0.8868 -0.2338
 5244SOL     OW17172   0.166   4.917  10.322  0.2057 -0.3243 -0.0916
 5244SOL    HW117173   0.221   4.840  10.304 -0.3688 -1.0933  1.2980
 5244SOL    HW217174   0.082   4.880  10.349 -0.7934  0.8364 -1.4698
 5245SOL     OW17175   1.482   5.780   9.040  0.7525  0.0459 -0.1330
 5245SOL    HW117176   1.541   5.853   9.057  2.1469 -1.2467  0.8126
 5245SOL    HW217177   1.512   5.744   8.957 -0.2960  0.8343 -0.8931
 5246SOL     OW17178   7.307   4.450   9.180  0.1861  0.2721 -0.0955
 5246SOL    HW117179   7.248   4.381   9.209 -0.1651 -0.0246 -1.4527
 5246SOL    HW217180   7.311   4.441   9.085  0.6398  1.7181 -0.2483
 5247SOL     OW17181   0.294   7.091   8.191 -0.1299 -0.7503 -0.3717
 5247SOL    HW117182   0.310   7.147   8.115  0.9971  0.2319  0.5432
 5247SOL    HW217183   0.370   7.033   8.195 -0.2150 -0.8393 -0.0364
 5248SOL     OW17184   0.350   6.356   8.745 -0.1154 -0.4021 -0.5803
 5248SOL    HW117185   0.392   6.301   8.812  0.5613  0.3050 -0.4122
 5248SOL    HW217186   0.409   6.352   8.670 -0.5751 -0.7103 -0.9325
 5249SOL     OW17187   7.700   5.700   7.751  0.2883  0.1211 -0.0716
 5249SOL    HW117188   7.773   5.697   7.690  1.1875 -0.1771  0.9982
 5249SOL    HW217189   7.740   5.693   7.838 -1.0196 -0.2888  0.5264
 5250SOL     OW17190   2.366   7.022   6.818  0.3671 -0.0103  0.2011
 5250SOL    HW117191   2.420   7.078   6.873 -0.5169  0.4745  0.5957
 5250SOL    HW217192   2.289   7.076   6.797  0.7937 -0.0700 -1.7474
 5251SOL     OW17193   0.988   6.857   9.217  0.0320 -0.2009  0.3142
 5251SOL    HW117194   1.056   6.805   9.260 -0.1764  0.0308  0.9277
 5251SOL    HW217195   0.940   6.899   9.288 -1.0031 -0.6552 -0.0879
 5252SOL     OW17196   0.559   7.155   7.724 -0.2084 -0.0733 -0.3798
 5252SOL    HW117197   0.573   7.203   7.642  1.1448 -0.6445 -0.5105
 5252SOL    HW217198   0.476   7.109   7.711 -0.2761  0.2688 -1.2208
 5253SOL     OW17199   7.454   5.276   9.697  0.7091  0.0599 -0.5583
 5253SOL    HW117200   7.401   5.356   9.692  0.9466  0.3517  1.0925
 5253SOL    HW217201   7.544   5.308   9.704  0.7979 -0.3513  0.1908
 5254SOL     OW17202   1.355   5.839   7.768 -0.6955  0.3471 -0.5555
 5254SOL    HW117203   1.318   5.816   7.853  0.6294  1.4691  0.3568
 5254SOL    HW217204   1.373   5.754   7.726 -1.4288 -0.2128  0.2342
 5255SOL     OW17205   7.752   7.450   6.972 -0.2492 -0.5040  0.4709
 5255SOL    HW117206   7.681   7.482   6.915  0.3570  0.1832  0.0788
 5255SOL    HW217207   7.815   7.522   6.973  0.1198 -0.8299  1.3858
 5256SOL     OW17208   1.350   5.386   8.979 -0.2037 -0.0815  0.5488
 5256SOL    HW117209   1.402   5.344   8.910 -0.2731 -0.4012  0.6851
 5256SOL    HW217210   1.400   5.372   9.059 -0.9700 -1.3127  0.8589
 5257SOL     OW17211   0.211   7.099   7.878  0.3807  0.1596 -0.0799
 5257SOL    HW117212   0.179   7.038   7.944  0.9131  2.2813  2.3083
 5257SOL    HW217213   0.264   7.045   7.819 -1.7328 -2.1728 -0.0434
 5258SOL     OW17214   0.244   6.288   7.515  0.6405  0.1544  0.2357
 5258SOL    HW117215   0.164   6.320   7.473 -0.7501 -1.3979  1.5653
 5258SOL    HW217216   0.254   6.198   7.485  0.6478 -0.3760  1.7135
 5259SOL     OW17217   1.187   5.742   7.484  0.0430 -0.0376 -0.5971
 5259SOL    HW117218   1.271   5.706   7.512  0.0134 -0.5927 -1.1895
 5259SOL    HW217219   1.134   5.745   7.564  0.8249  0.9337 -0.0875
 5260SOL     OW17220   0.848   7.982   9.120  0.0480  0.0519  0.1072
 5260SOL    HW117221   0.860   7.906   9.176 -0.8225 -0.8113 -0.8321
 5260SOL    HW217222   0.757   7.976   9.091 -0.8299  2.7623  1.8711
 5261SOL     OW17223   1.513   6.080   6.996 -1.2962 -0.1261 -0.1982
 5261SOL    HW117224   1.523   6.100   6.902  1.2474 -0.2728 -0.0272
 5261SOL    HW217225   1.541   6.161   7.040  0.4554 -1.0388  0.4289
 5262SOL     OW17226   7.223   1.141   7.183  0.3947  0.1742  0.2274
 5262SOL    HW117227   7.220   1.206   7.254 -1.9517 -0.9403  1.2858
 5262SOL    HW217228   7.243   1.058   7.227  1.8285 -0.1169 -0.8865
 5263SOL     OW17229   0.485   5.884   6.650 -0.7205 -0.0947  0.3047
 5263SOL    HW117230   0.557   5.822   6.637 -0.1597  0.2688  1.5243
 5263SOL    HW217231   0.410   5.842   6.607 -0.0657 -1.0387  0.0383
 5264SOL     OW17232   0.307   7.223   6.275  0.3082  0.2991 -0.7901
 5264SOL    HW117233   0.224   7.255   6.312 -0.5126 -0.6154 -1.7508
 5264SOL    HW217234   0.367   7.219   6.349 -0.8665 -0.1681  0.1744
 5265SOL     OW17235   1.952   6.927   9.483  0.1085  0.5005 -0.1320
 5265SOL    HW117236   1.870   6.887   9.510 -0.0950  0.5038 -0.7221
 5265SOL    HW217237   1.969   6.994   9.549 -0.4349  0.5909 -0.0770
 5266SOL     OW17238   0.529   6.581  10.424 -0.2677  0.1067 -0.0934
 5266SOL    HW117239   0.481   6.568  10.505 -1.8394  0.1439 -0.9791
 5266SOL    HW217240   0.550   6.675  10.423  0.2101  0.0121  0.4877
 5267SOL     OW17241   7.628   6.691   7.190  0.6292 -0.6078  0.0602
 5267SOL    HW117242   7.558   6.654   7.244  1.0350 -0.4660  0.6922
 5267SOL    HW217243   7.703   6.634   7.205  0.7487 -0.5657 -0.3575
 5268SOL     OW17244   7.792   7.953   8.122  0.1479 -0.2450  0.6862
 5268SOL    HW117245   7.856   7.882   8.118  0.0620 -0.2587 -0.7192
 5268SOL    HW217246   7.738   7.942   8.044 -2.3428 -0.9040  2.3977
 5269SOL     OW17247   3.202   6.580   9.415 -0.0162  0.6817 -0.3038
 5269SOL    HW117248   3.176   6.666   9.449  0.4470  0.3797  0.8378
 5269SOL    HW217249   3.236   6.533   9.491 -0.1935 -0.4953 -0.9307
 5270SOL     OW17250   7.826   6.026   9.966 -0.0451 -0.3429  0.1905
 5270SOL    HW117251   7.733   6.046   9.966 -0.1788  0.2539 -4.3355
 5270SOL    HW217252   7.867   6.097  10.015 -1.7654  1.7789 -1.2590
 5271SOL     OW17253   0.646   6.917   8.847  0.1746 -0.0130 -0.2114
 5271SOL    HW117254   0.582   6.845   8.847  1.0155 -0.7777  0.0220
 5271SOL    HW217255   0.620   6.971   8.773 -1.7785  0.6393  0.8740
 5272SOL     OW17256   0.873   5.826   9.616 -0.6582  0.2218  0.4865
 5272SOL    HW117257   0.951   5.874   9.586 -0.4961 -0.0715  0.4310
 5272SOL    HW217258   0.814   5.894   9.649 -1.0891  0.6228 -1.0208
 5273SOL     OW17259   7.451   7.724   7.264 -0.5037 -0.2332  0.2503
 5273SOL    HW117260   7.466   7.812   7.229 -0.6533  0.1106  1.0357
 5273SOL    HW217261   7.358   7.709   7.252 -0.5681 -0.0869  0.5628
 5274SOL     OW17262   0.503   6.451   9.249 -0.5047 -0.3765  0.2032
 5274SOL    HW117263   0.411   6.467   9.229 -0.6907 -2.1460 -0.5908
 5274SOL    HW217264   0.525   6.515   9.317 -1.9654  0.8707 -0.4401
 5275SOL     OW17265   1.368   4.692   9.397 -0.2387  0.1654  0.1773
 5275SOL    HW117266   1.432   4.657   9.335 -1.2533 -2.9933  0.7257
 5275SOL    HW217267   1.308   4.619   9.413 -1.1629  1.4756  3.3920
 5276SOL     OW17268   6.925   0.235   8.494 -0.4809 -0.2466  0.1875
 5276SOL    HW117269   6.958   0.247   8.583 -1.9106  2.7447  0.4500
 5276SOL    HW217270   6.869   0.158   8.500 -1.4727  0.5344  2.2736
 5277SOL     OW17271   0.829   7.939   7.620  0.1949  0.1090 -0.3382
 5277SOL    HW117272   0.837   7.859   7.672  1.4837  0.5759  0.2200
 5277SOL    HW217273   0.821   8.008   7.685  1.3954  0.6619 -0.7489
 5278SOL     OW17274   0.710   5.308   7.070  0.0060 -0.4324  0.2127
 5278SOL    HW117275   0.802   5.283   7.076 -0.0964 -0.7845  0.2878
 5278SOL    HW217276   0.684   5.324   7.161 -0.1272 -0.7590  0.2321
 5279SOL     OW17277   1.878   5.841   8.273  0.2070 -0.3011 -0.5558
 5279SOL    HW117278   1.823   5.806   8.342  2.6820 -3.1998  0.1790
 5279SOL    HW217279   1.848   5.798   8.193 -0.9952  1.0990 -0.9019
 5280SOL     OW17280   1.140   4.156   7.669  0.2836  0.2757 -0.1503
 5280SOL    HW117281   1.153   4.124   7.758  0.8838 -0.8081 -0.5971
 5280SOL    HW217282   1.197   4.233   7.663  0.1368  0.4330  0.4441
 5281SOL     OW17283   6.636   6.140  10.477 -0.0375  0.1555  0.2210
 5281SOL    HW117284   6.710   6.081  10.467 -0.2769 -0.6569  2.5223
 5281SOL    HW217285   6.664   6.203  10.543 -1.0324  0.4499  0.3851
 5282SOL     OW17286   0.379   0.533   7.644  0.1828  0.0759 -0.7057
 5282SOL    HW117287   0.318   0.571   7.708  1.9043  0.6015  0.6910
 5282SOL    HW217288   0.393   0.444   7.675  0.8380  0.2590 -0.4473
 5283SOL     OW17289   6.859   6.389  10.235  0.3262  0.1646  0.4570
 5283SOL    HW117290   6.796   6.357  10.300 -0.9140 -0.5140 -1.0331
 5283SOL    HW217291   6.848   6.331  10.160  0.4367  1.9870 -1.0551
 5284SOL     OW17292   0.776   6.908  11.333  0.2084 -0.1169  0.7636
 5284SOL    HW117293   0.753   6.849  11.261 -1.4729 -0.4627  1.5501
 5284SOL    HW217294   0.809   6.850  11.402  1.0696  0.1394  0.5808
 5285SOL     OW17295   0.454   5.786   9.495 -0.7355  0.3028  0.4156
 5285SOL    HW117296   0.406   5.721   9.547 -0.2797 -0.2227  0.1828
 5285SOL    HW217297   0.525   5.737   9.455 -0.9422  0.7496 -0.5228
 5286SOL     OW17298   7.876   7.642  10.475 -0.2891 -0.1157 -0.1988
 5286SOL    HW117299   7.850   7.658  10.384 -1.4995  1.6644  0.4006
 5286SOL    HW217300   7.808   7.585  10.511  0.4739 -1.2627 -0.5213
 5287SOL     OW17301   1.460   4.206   8.819  0.2631  0.0007  0.2206
 5287SOL    HW117302   1.508   4.267   8.762  0.3019 -0.2748 -0.0425
 5287SOL    HW217303   1.528   4.147   8.853  0.2915  0.3685  0.8202
 5288SOL     OW17304   0.053   5.077   9.252  0.6012  0.0384  0.0357
 5288SOL    HW117305   0.068   4.985   9.232  1.1012 -0.0154  0.6274
 5288SOL    HW217306  -0.042   5.087   9.248  0.6234  0.0043 -2.1549
 5289SOL     OW17307   1.951   4.455  10.868 -0.1127 -0.1879  0.1061
 5289SOL    HW117308   2.015   4.522  10.845  1.0043 -1.3699 -0.4011
 5289SOL    HW217309   1.994   4.405  10.937 -0.1275 -1.4801 -0.7852
 5290SOL     OW17310   3.057   4.688  11.445 -0.0240  0.2673  0.0042
 5290SOL    HW117311   3.105   4.736  11.377  1.7424  2.0812  2.3673
 5290SOL    HW217312   2.974   4.666  11.403  1.2739  0.4869 -3.0029
 5291SOL     OW17313   0.143   7.768   9.493  0.0827 -0.0350 -0.3649
 5291SOL    HW117314   0.065   7.727   9.529  0.3589 -1.2001 -1.0381
 5291SOL    HW217315   0.139   7.749   9.399  0.8110  0.4924 -0.5157
 5292SOL     OW17316   0.834   5.730  11.125 -0.1448  0.1210  0.0750
 5292SOL    HW117317   0.895   5.656  11.135 -0.1105 -0.0117 -1.0275
 5292SOL    HW217318   0.810   5.729  11.033  1.0739  2.4293 -0.3304
 5293SOL     OW17319   6.690   6.699  10.393 -0.1696 -0.4304  0.3833
 5293SOL    HW117320   6.634   6.692  10.471 -1.6770  0.7006 -0.5578
 5293SOL    HW217321   6.699   6.793  10.378 -0.6755 -0.6275 -1.3325
 5294SOL     OW17322   1.318   7.238  11.316  0.1644 -0.5651 -0.6680
 5294SOL    HW117323   1.355   7.208  11.399  1.2766  0.2363 -0.8482
 5294SOL    HW217324   1.259   7.309  11.340  1.4841  0.5719 -0.6184
 5295SOL     OW17325   0.429   6.675  10.669  0.4226 -0.0260 -0.1991
 5295SOL    HW117326   0.383   6.758  10.654  0.5831 -0.2928 -2.5127
 5295SOL    HW217327   0.513   6.701  10.707  0.0413  0.7748  0.1243
 5296SOL     OW17328   1.297   5.526  10.780 -0.1240 -0.8746  0.2759
 5296SOL    HW117329   1.354   5.497  10.708 -0.8949 -0.2132 -0.6230
 5296SOL    HW217330   1.212   5.489  10.759 -0.2668 -0.9908  1.0604
 5297SOL     OW17331   7.342   7.244   7.928  0.1420 -0.0787  0.6252
 5297SOL    HW117332   7.317   7.154   7.950 -0.2259  0.1927  1.3631
 5297SOL    HW217333   7.382   7.237   7.841 -0.5858 -0.8403  0.3306
 5298SOL     OW17334   0.649   7.705  11.926 -0.4122 -0.1613  0.0474
 5298SOL    HW117335   0.623   7.762  11.999 -1.2631  1.4466 -1.4434
 5298SOL    HW217336   0.566   7.670  11.893 -0.2280  0.5417 -1.2250
 5299SOL     OW17337   0.991   6.809  10.118 -0.3131  0.2290  0.4372
 5299SOL    HW117338   1.070   6.756  10.106  0.5173  1.5975 -0.4358
 5299SOL    HW217339   0.922   6.761  10.073  0.4918  0.0346 -0.6160
 5300SOL     OW17340   0.788   4.816  12.039 -0.2990  0.1340 -0.1938
 5300SOL    HW117341   0.791   4.836  12.133  2.1424 -0.4523 -0.0863
 5300SOL    HW217342   0.765   4.724  12.034 -0.6140  0.2115 -0.1847
 5301SOL     OW17343   1.161   0.725  10.385 -0.2802 -0.4216  0.0157
 5301SOL    HW117344   1.173   0.653  10.323 -1.0175  0.8675 -1.6893
 5301SOL    HW217345   1.219   0.703  10.458  1.4768 -1.4500 -1.5958
 5302SOL     OW17346   7.954   6.838   9.869 -0.1783 -0.2075  0.1403
 5302SOL    HW117347   8.040   6.869   9.841 -0.8762  0.6305 -1.1916
 5302SOL    HW217348   7.973   6.761   9.922  1.4383  0.5151  0.6943
 5303SOL     OW17349   2.191   3.646  11.101  0.1102  0.5741 -0.3839
 5303SOL    HW117350   2.200   3.593  11.022  2.5218 -0.4737  0.4888
 5303SOL    HW217351   2.107   3.690  11.092 -1.6455 -2.7255 -1.6094
 5304SOL     OW17352   7.263   7.449   9.854  0.4616  0.0794 -0.2058
 5304SOL    HW117353   7.319   7.459   9.777  1.3072  1.8517  0.5762
 5304SOL    HW217354   7.186   7.504   9.835 -0.0396 -0.6723 -0.3941
 5305SOL     OW17355   0.784   6.335   8.036 -0.6380 -0.2594  0.7010
 5305SOL    HW117356   0.865   6.294   8.066  0.3931  2.3729  1.8116
 5305SOL    HW217357   0.809   6.378   7.953 -0.5981  1.2116  1.4320
 5306SOL     OW17358   1.366   6.355   8.756  0.5010 -0.6021 -0.1406
 5306SOL    HW117359   1.396   6.446   8.749  1.6761 -0.9312  0.3714
 5306SOL    HW217360   1.297   6.358   8.822  1.0018 -0.1772  0.3754
 5307SOL     OW17361   2.264   6.914  10.124  0.7269 -0.1902 -0.2750
 5307SOL    HW117362   2.251   6.884  10.034  0.1811  0.0608 -0.2868
 5307SOL    HW217363   2.330   6.855  10.160  0.2248 -0.9229 -0.5295
 5308SOL     OW17364   1.526   5.794  10.912  0.0941  0.7349  0.2881
 5308SOL    HW117365   1.582   5.730  10.956 -1.1745 -0.2572  0.5265
 5308SOL    HW217366   1.528   5.768  10.819  0.0355  0.6947  0.2977
 5309SOL     OW17367   7.469   6.125  11.523 -0.0758  0.2347  0.1919
 5309SOL    HW117368   7.532   6.053  11.527  0.7739  0.9994  1.2723
 5309SOL    HW217369   7.401   6.101  11.587  1.2361  1.2752  2.0755
 5310SOL     OW17370   0.449   6.497  11.095  0.3363  1.0546  0.2770
 5310SOL    HW117371   0.379   6.550  11.133  0.5133  1.5489 -0.0848
 5310SOL    HW217372   0.417   6.475  11.007 -0.0914 -0.1209  0.6928
 5311SOL     OW17373   7.744   5.241   0.081  0.0430  0.2075  0.1336
 5311SOL    HW117374   7.817   5.281   0.128 -0.4368  2.0738 -0.6264
 5311SOL    HW217375   7.760   5.262  -0.011 -0.5768 -0.8260 -0.2267
 5312SOL     OW17376   0.741   5.761  12.031 -0.2589  0.5195  0.2117
 5312SOL    HW117377   0.698   5.676  12.020  1.4538 -0.2625 -0.7287
 5312SOL    HW217378   0.745   5.774  12.126 -0.4289 -0.4858  0.3608
 5313SOL     OW17379   7.705   6.014  11.811 -0.1058 -0.6719  0.1627
 5313SOL    HW117380   7.644   6.088  11.806 -1.5921 -1.8826 -0.3835
 5313SOL    HW217381   7.700   5.974  11.724  2.3837 -0.1484 -0.2906
 5314SOL     OW17382   0.453   5.361   8.228  0.0676  0.0642 -0.3214
 5314SOL    HW117383   0.544   5.390   8.220 -0.0798  0.8388  0.5627
 5314SOL    HW217384   0.406   5.415   8.164 -0.0313  1.0070  0.5165
 5315SOL     OW17385   2.150   7.885  11.735 -0.2100 -0.2602  0.5359
 5315SOL    HW117386   2.205   7.880  11.813 -0.3309 -0.5630  0.6060
 5315SOL    HW217387   2.069   7.840  11.760 -0.5681  0.3479  0.4945
 5316SOL     OW17388   7.440   5.883   0.203 -0.0013 -0.5962  0.4857
 5316SOL    HW117389   7.360   5.869   0.152  0.0986  0.5869 -0.0218
 5316SOL    HW217390   7.412   5.935   0.279  0.3793  0.3661 -0.0202
 5317SOL     OW17391   1.774   6.338  10.761  0.2350 -0.3779 -0.0960
 5317SOL    HW117392   1.863   6.370  10.773  0.0729 -0.6431  2.6411
 5317SOL    HW217393   1.770   6.309  10.670  2.7533  0.1472 -0.4410
 5318SOL     OW17394   1.843   6.299  10.342  0.2896 -0.4878  0.4061
 5318SOL    HW117395   1.915   6.358  10.321  0.1984 -0.1423  1.0662
 5318SOL    HW217396   1.865   6.264  10.429 -1.2045  0.9587  1.4025
 5319SOL     OW17397   1.218   6.631  10.375 -0.7564  0.2936 -0.3652
 5319SOL    HW117398   1.300   6.611  10.330 -0.8113 -1.0833  0.1075
 5319SOL    HW217399   1.232   6.719  10.410  0.0470  0.5760 -1.3321
 5320SOL     OW17400   6.788   6.007   0.744 -0.2809 -0.4452  0.1090
 5320SOL    HW117401   6.744   6.085   0.710 -0.5207 -0.0638  1.2321
 5320SOL    HW217402   6.755   5.935   0.691  1.6208  0.4360 -2.4733
 5321SOL     OW17403   2.261   0.733   8.978 -0.2947 -0.2728  0.6273
 5321SOL    HW117404   2.277   0.822   8.945 -0.5234  0.5381  2.5896
 5321SOL    HW217405   2.348   0.696   8.991 -0.1650  0.2026  1.1512
 5322SOL     OW17406   0.399   6.604  10.036  0.1356 -0.2329 -0.5847
 5322SOL    HW117407   0.325   6.601  10.096  0.9999 -1.8605  0.4901
 5322SOL    HW217408   0.471   6.564  10.086  1.7785  1.4082 -1.5271
 5323SOL     OW17409   1.080   6.556   0.511 -0.2758 -0.0186 -0.6266
 5323SOL    HW117410   1.129   6.562   0.593 -0.4406  0.9550 -0.5901
 5323SOL    HW217411   0.992   6.531   0.538  0.2978 -2.5129 -0.7431
 5324SOL     OW17412   1.109   5.584  11.288  0.0832 -0.4822  0.7150
 5324SOL    HW117413   1.177   5.558  11.351  0.9029 -0.3046 -0.0832
 5324SOL    HW217414   1.149   5.569  11.203 -0.1882  1.3768  0.2219
 5325SOL     OW17415   1.006   6.629  11.360 -0.0406  0.1844  0.4709
 5325SOL    HW117416   0.949   6.553  11.352 -1.9371  1.6359 -0.7589
 5325SOL    HW217417   1.094   6.595  11.348 -0.7552 -1.9291  0.8819
 5326SOL     OW17418   0.338   6.222   9.526 -0.2052 -0.0011 -0.5165
 5326SOL    HW117419   0.307   6.195   9.612  0.9887  1.3352  0.3852
 5326SOL    HW217420   0.425   6.184   9.518 -0.5462 -0.6495 -1.4434
 5327SOL     OW17421   6.306   4.928  10.334 -0.6506 -0.7365 -0.1409
 5327SOL    HW117422   6.236   4.898  10.392 -2.0820 -2.3070 -2.5171
 5327SOL    HW217423   6.284   4.891  10.248  0.5341  2.6064 -2.0848
 5328SOL     OW17424   7.086   7.402  11.320 -0.2221  0.4080  0.1242
 5328SOL    HW117425   7.155   7.463  11.346 -0.7487  1.5326 -0.9593
 5328SOL    HW217426   7.092   7.400  11.224  0.6265 -2.3009  0.1662
 5329SOL     OW17427   0.953   5.156   7.019  0.7746  0.1543  0.1719
 5329SOL    HW117428   1.033   5.177   7.067  1.2604 -1.5089  0.1422
 5329SOL    HW217429   0.962   5.064   6.996 -0.4711  0.3350 -1.1699
 5330SOL     OW17430   2.388   3.694  11.980  0.4922  0.0667 -0.1627
 5330SOL    HW117431   2.386   3.778  12.026 -0.3133  0.1926 -0.4061
 5330SOL    HW217432   2.313   3.698  11.921  2.9362  1.0467 -3.5142
 5331SOL     OW17433   1.641   6.861  10.424 -0.5091  0.3461  0.1064
 5331SOL    HW117434   1.694   6.881  10.501 -0.4755 -1.3497  0.5843
 5331SOL    HW217435   1.553   6.845  10.460 -2.1991  5.5780 -0.9085
 5332SOL     OW17436   0.506   4.706   9.288 -0.1068  0.2853  0.0496
 5332SOL    HW117437   0.479   4.615   9.280 -0.8826  0.6097 -1.4548
 5332SOL    HW217438   0.542   4.728   9.202  1.0330  1.1112  0.7063
 5333SOL     OW17439   1.023   7.394   9.379  0.3643  0.0961  0.4890
 5333SOL    HW117440   1.000   7.480   9.347 -0.7645 -0.1148  0.6937
 5333SOL    HW217441   0.956   7.336   9.344  0.4845 -0.5185  1.2327
 5334SOL     OW17442   0.962   7.897  10.521 -0.2045 -0.3239  0.1159
 5334SOL    HW117443   0.994   7.813  10.490  0.6257  0.4188 -1.0972
 5334SOL    HW217444   0.894   7.922  10.457  0.7513  0.7062 -0.5305
 5335SOL     OW17445   1.262   4.665  11.346  0.4475 -0.1989 -0.1880
 5335SOL    HW117446   1.298   4.651  11.434  1.1509 -1.4121 -0.6345
 5335SOL    HW217447   1.299   4.593  11.294 -2.3685 -1.3486 -0.7730
 5336SOL     OW17448   0.610   5.889  11.147  0.2802 -0.6157  0.2304
 5336SOL    HW117449   0.702   5.861  11.152  0.7318  0.2739 -1.9095
 5336SOL    HW217450   0.570   5.831  11.083  0.1592  0.8266 -1.0707
 5337SOL     OW17451   7.945   5.954   9.559 -0.6582  0.0667  0.1823
 5337SOL    HW117452   7.938   6.049   9.552 -1.2216 -0.0515 -1.1983
 5337SOL    HW217453   8.039   5.936   9.560 -0.5496  0.6147  0.0394
 5338SOL     OW17454   1.394   5.363   9.293 -0.1114  0.6467  0.5287
 5338SOL    HW117455   1.443   5.445   9.292  1.3839 -0.2259  0.4510
 5338SOL    HW217456   1.332   5.373   9.366 -0.3681  2.0640  0.1452
 5339SOL     OW17457   7.531   7.275   0.968 -0.0142 -0.0556  0.5170
 5339SOL    HW117458   7.529   7.365   1.002  0.2621 -0.3583  1.3485
 5339SOL    HW217459   7.623   7.257   0.953 -0.1987  0.6399 -2.0144
 5340SOL     OW17460   1.224   7.761   9.552  0.2997  0.0214  0.0529
 5340SOL    HW117461   1.258   7.811   9.627  0.5392  1.3815 -0.9254
 5340SOL    HW217462   1.246   7.670   9.572  0.4924  0.3657  1.5579
 5341SOL     OW17463   6.607   4.676  10.760 -0.8395 -0.0992  0.3588
 5341SOL    HW117464   6.578   4.746  10.701  1.8392  0.0345 -1.0009
 5341SOL    HW217465   6.678   4.716  10.810 -1.5340 -0.9182  2.0621
 5342SOL     OW17466   0.792   7.491   8.993  0.5600  0.1481  0.2562
 5342SOL    HW117467   0.809   7.551   9.066  0.5334  2.8351 -1.7752
 5342SOL    HW217468   0.876   7.447   8.978  2.0097  3.0422 -0.9298
 5343SOL     OW17469   2.224   5.448   9.721 -0.4168 -0.5999  0.6850
 5343SOL    HW117470   2.245   5.522   9.778  3.0147  0.5832 -1.7823
 5343SOL    HW217471   2.276   5.375   9.757 -2.5357 -1.5110  2.1405
 5344SOL     OW17472   0.205   7.579  11.026  0.9654 -0.4524 -0.5197
 5344SOL    HW117473   0.189   7.624  10.942 -0.5415  0.9768  0.4704
 5344SOL    HW217474   0.171   7.490  11.012 -3.0730  0.8537 -0.3328
 5345SOL     OW17475   7.907   6.590  10.293 -0.4665 -0.4517 -0.1870
 5345SOL    HW117476   7.952   6.631  10.367  2.0300 -2.8099 -0.2598
 5345SOL    HW217477   7.868   6.510  10.330  0.2517 -1.3174 -1.2660
 5346SOL     OW17478   7.568   5.350  10.759  0.3241 -0.3428  0.0977
 5346SOL    HW117479   7.541   5.331  10.669  2.0521  0.8355 -0.7072
 5346SOL    HW217480   7.628   5.278  10.781  0.4867 -0.2259  0.0358
 5347SOL     OW17481   2.257   7.088  10.534  0.0757  0.2937  0.0846
 5347SOL    HW117482   2.197   7.042  10.476  1.6630 -1.2302 -0.4150
 5347SOL    HW217483   2.229   7.064  10.622 -1.4423  1.4629 -0.0343
 5348SOL     OW17484   0.889   6.643   9.952 -0.1839  0.5897 -0.2449
 5348SOL    HW117485   0.934   6.577  10.004 -3.5444 -0.6907  1.2908
 5348SOL    HW217486   0.853   6.595   9.878 -0.8767  1.1113 -0.2590
 5349SOL     OW17487   7.819   6.431   0.006  0.3179  0.1266 -0.0436
 5349SOL    HW117488   7.747   6.443   0.068  0.4069 -1.6753  0.4492
 5349SOL    HW217489   7.892   6.400   0.059  0.5064 -1.1026 -0.9759
 5350SOL     OW17490   7.006   7.145  10.315  1.3011  0.5688  0.1064
 5350SOL    HW117491   7.017   7.181  10.227  0.4404 -0.7700 -0.6028
 5350SOL    HW217492   7.009   7.050  10.302  2.7756  0.3358  1.7762
 5351SOL     OW17493   0.811   6.192  12.031  0.2516 -0.0718  0.8835
 5351SOL    HW117494   0.816   6.114  11.977  1.6753  0.4485  0.2212
 5351SOL    HW217495   0.845   6.262  11.976  0.0669  0.8100  1.8521
 5352SOL     OW17496   0.715   7.171  10.092  0.5227  0.4653 -0.4379
 5352SOL    HW117497   0.634   7.182  10.042  0.6686 -0.5239 -0.9097
 5352SOL    HW217498   0.710   7.082  10.127  1.6171  0.2213 -0.8743
 5353SOL     OW17499   0.989   5.969  10.912  1.1325  0.0725  0.0627
 5353SOL    HW117500   1.052   5.901  10.890 -0.4908 -2.1736  1.8697
 5353SOL    HW217501   1.024   6.010  10.991  1.5960  0.6669 -0.4392
 5354SOL     OW17502   7.739   6.729  10.715 -0.3110 -0.0648 -0.2034
 5354SOL    HW117503   7.701   6.803  10.669  0.1038  0.0642 -0.3353
 5354SOL    HW217504   7.739   6.755  10.807 -0.0998  0.1278 -0.2580
 5355SOL     OW17505   1.406   7.975   9.480 -0.2435  0.0633 -0.0147
 5355SOL    HW117506   1.345   8.036   9.439 -1.7743 -0.5823  1.1971
 5355SOL    HW217507   1.392   7.892   9.433 -1.1395 -0.3722  0.9845
 5356SOL     OW17508   7.108   5.605  10.063 -0.6900  0.2094  0.4020
 5356SOL    HW117509   7.055   5.610  10.143  0.5890 -1.0423  1.3898
 5356SOL    HW217510   7.062   5.542  10.008 -1.9887  1.6371 -0.2339
 5357SOL     OW17511   6.419   6.305   8.859  0.0054  0.5265  0.2475
 5357SOL    HW117512   6.378   6.351   8.932  0.7891  0.9543  0.4319
 5357SOL    HW217513   6.364   6.228   8.845 -1.7405  1.8714 -0.5265
 5358SOL     OW17514   1.050   6.222  10.811 -0.1645 -0.0157  0.2531
 5358SOL    HW117515   1.005   6.142  10.784  1.0953 -0.7215  0.1403
 5358SOL    HW217516   0.995   6.259  10.880 -0.9128 -0.8271  0.1084
 5359SOL     OW17517   1.077   6.280   8.915  0.1279 -0.0169 -0.3865
 5359SOL    HW117518   1.062   6.215   8.983  1.0033 -0.6691 -0.8043
 5359SOL    HW217519   1.038   6.242   8.836  0.0340  0.2754 -0.4851
 5360SOL     OW17520   0.113   7.831  10.711  0.5109 -0.1784 -0.3534
 5360SOL    HW117521   0.025   7.793  10.717  0.9099 -0.8945  2.8689
 5360SOL    HW217522   0.099   7.925  10.725  0.2057 -0.2279 -0.3107
 5361SOL     OW17523   1.890   7.325  10.331 -0.2421 -0.0544 -0.6109
 5361SOL    HW117524   1.861   7.319  10.240 -0.4210 -3.8407 -0.4441
 5361SOL    HW217525   1.812   7.350  10.380 -1.5669 -3.0478 -1.0021
 5362SOL     OW17526   0.661   6.933   9.892 -0.4421 -0.1327 -0.1432
 5362SOL    HW117527   0.644   6.868   9.961 -2.8171 -1.7164 -2.0489
 5362SOL    HW217528   0.593   6.999   9.903  0.8491  1.1370  0.6364
 5363SOL     OW17529   7.617   5.802   0.400 -0.3879 -0.3099  0.1461
 5363SOL    HW117530   7.674   5.741   0.354 -1.2355 -1.5990  0.7723
 5363SOL    HW217531   7.547   5.821   0.337  0.5142  1.0399 -0.5109
 5364SOL     OW17532   7.648   5.924  11.528  0.0868 -0.2804  0.5269
 5364SOL    HW117533   7.600   5.842  11.516 -0.3277  0.1035 -0.5395
 5364SOL    HW217534   7.737   5.904  11.499  0.4205 -0.7962  1.8378
 5365SOL     OW17535   7.223   6.845  10.233 -0.1155 -0.6633 -0.6123
 5365SOL    HW117536   7.229   6.753  10.208 -0.2246 -0.4627 -1.4354
 5365SOL    HW217537   7.223   6.892  10.149 -0.5339  0.0519 -0.2214
 5366SOL     OW17538   1.208   5.460   8.553 -0.5029  0.3612 -0.5710
 5366SOL    HW117539   1.170   5.519   8.618  0.6906  0.3502  0.1700
 5366SOL    HW217540   1.194   5.505   8.469 -2.4149  0.1894 -0.3931
 5367SOL     OW17541   1.869   7.084   9.258 -0.0430 -0.8126  0.6279
 5367SOL    HW117542   1.929   7.030   9.309 -0.1844  0.1179  1.8092
 5367SOL    HW217543   1.898   7.073   9.168  2.3601  0.1490  1.2102
 5368SOL     OW17544   0.202   4.662  10.501 -0.3980 -0.0625  0.2656
 5368SOL    HW117545   0.244   4.599  10.443  1.0303  2.5686 -1.7787
 5368SOL    HW217546   0.271   4.726  10.521 -2.4227  2.4620 -0.2685
 5369SOL     OW17547   1.251   4.602   8.770 -0.0778  0.4644 -0.0486
 5369SOL    HW117548   1.212   4.518   8.745 -0.0173  0.4750 -0.1790
 5369SOL    HW217549   1.176   4.655   8.798 -0.0378  0.1474  0.6771
 5370SOL     OW17550   7.957   5.408  10.847 -0.1475  0.6246  0.1224
 5370SOL    HW117551   7.979   5.324  10.887 -0.5105  0.6501  0.3827
 5370SOL    HW217552   8.001   5.406  10.762  0.0791  0.2902  0.2427
 5371SOL     OW17553   1.836   6.016  11.132  0.2460 -0.2403  0.3725
 5371SOL    HW117554   1.821   5.931  11.171  0.9247  0.2452  1.7483
 5371SOL    HW217555   1.874   5.996  11.046 -0.9127 -1.3198  0.0870
 5372SOL     OW17556   1.749   0.203   9.710  0.0087  0.2634 -0.4019
 5372SOL    HW117557   1.735   0.298   9.720 -0.2142  0.2238 -0.3312
 5372SOL    HW217558   1.736   0.187   9.617 -1.2442  0.0988 -0.2184
 5373SOL     OW17559   5.902   6.600  10.315  0.5144 -0.7437  0.2882
 5373SOL    HW117560   5.943   6.544  10.249  0.7428  0.3585 -0.5525
 5373SOL    HW217561   5.971   6.662  10.340 -0.3022  0.4661 -0.3494
 5374SOL     OW17562   1.728   6.525  11.670  0.4176  0.2190  0.4390
 5374SOL    HW117563   1.808   6.548  11.716  0.1851 -1.0578  1.5713
 5374SOL    HW217564   1.665   6.507  11.740 -0.8428  1.1169 -0.4229
 5375SOL     OW17565   1.393   7.751   0.015  0.4828  0.2674 -0.2510
 5375SOL    HW117566   1.484   7.778   0.026  1.0007 -1.4483 -0.0694
 5375SOL    HW217567   1.380   7.680   0.078 -0.9589  0.4149 -0.3344
 5376SOL     OW17568   0.958   0.429   9.519  0.3944 -0.5895 -0.4788
 5376SOL    HW117569   0.893   0.367   9.488 -0.7855 -0.2306  1.1249
 5376SOL    HW217570   1.004   0.458   9.440 -1.7051 -0.4996 -1.7363
 5377SOL     OW17571   2.391   7.904   9.978 -0.0758  0.3324  0.5115
 5377SOL    HW117572   2.333   7.844  10.024  1.2316 -0.6100  0.9781
 5377SOL    HW217573   2.436   7.850   9.913  2.9890  0.1367  2.5794
 5378SOL     OW17574   6.548   5.485   8.723 -0.8874 -0.3857  0.2793
 5378SOL    HW117575   6.591   5.441   8.796 -0.4832  1.3775  1.1508
 5378SOL    HW217576   6.474   5.428   8.701 -1.9042 -0.2921  3.0463
 5379SOL     OW17577   1.351   6.163  10.328  0.5590  0.4563  0.4928
 5379SOL    HW117578   1.387   6.087  10.283  0.8900  0.6787  0.3749
 5379SOL    HW217579   1.426   6.199  10.377  0.5565  1.0596  0.0628
 5380SOL     OW17580   0.082   5.384  10.576 -0.0691 -0.7021  0.4165
 5380SOL    HW117581   0.064   5.294  10.605  0.4531 -0.9086  0.1061
 5380SOL    HW217582   0.086   5.378  10.481 -0.2127 -0.3152  0.3874
 5381SOL     OW17583   7.248   7.112  11.137  0.0940  0.0905 -0.5813
 5381SOL    HW117584   7.204   7.174  11.079  0.1603  0.8430  0.1648
 5381SOL    HW217585   7.297   7.166  11.199  1.3984 -0.7168 -0.8609
 5382SOL     OW17586   1.115   4.896   0.765  0.0291  0.0448 -0.2980
 5382SOL    HW117587   1.170   4.875   0.841 -2.1214 -0.6446  1.1636
 5382SOL    HW217588   1.165   4.962   0.717  2.3322 -0.8905  0.6520
 5383SOL     OW17589   7.792   0.170  11.601  0.3918  0.2484 -0.2451
 5383SOL    HW117590   7.838   0.251  11.578 -1.1685  1.4009  0.4557
 5383SOL    HW217591   7.769   0.181  11.693 -1.7158  0.0198 -0.6875
 5384SOL     OW17592   1.127   5.865  11.347 -0.0274 -0.0351  0.0262
 5384SOL    HW117593   1.096   5.781  11.314 -1.1338  0.8087 -1.2425
 5384SOL    HW217594   1.080   5.930  11.293  1.4703  1.3746  0.3470
 5385SOL     OW17595   0.755   6.612  10.925 -0.2775  0.7734 -0.0762
 5385SOL    HW117596   0.839   6.571  10.947 -0.1034  1.5332  0.7369
 5385SOL    HW217597   0.701   6.541  10.892 -0.4362 -0.4087  2.4909
 5386SOL     OW17598   1.938   0.112  10.316  0.1095  0.4935  0.1400
 5386SOL    HW117599   2.019   0.159  10.295 -0.6704  1.4792 -0.7558
 5386SOL    HW217600   1.879   0.131  10.243 -0.3113 -1.7594 -0.1760
 5387SOL     OW17601   0.950   7.872  10.820 -0.5205  0.2381 -0.2713
 5387SOL    HW117602   0.949   7.904  10.730  0.8400 -2.7924 -1.4928
 5387SOL    HW217603   0.930   7.779  10.813 -1.0072  0.0323  2.6528
 5388SOL     OW17604   1.510   6.570  10.057  0.3007  0.0781 -0.3151
 5388SOL    HW117605   1.526   6.607  10.144  0.6347 -0.7956  0.0022
 5388SOL    HW217606   1.458   6.491  10.074 -0.3998  0.3837 -0.9851
 5389SOL     OW17607   7.894   6.570  11.021 -0.0200  0.4148 -0.0384
 5389SOL    HW117608   7.883   6.477  11.000 -0.5802  1.1770 -3.8289
 5389SOL    HW217609   7.805   6.601  11.039 -0.1147  0.5912 -0.7823
 5390SOL     OW17610   7.408   6.879  11.207  0.1943  0.4969  0.4261
 5390SOL    HW117611   7.455   6.875  11.290 -1.2263 -0.7810  1.2404
 5390SOL    HW217612   7.388   6.972  11.195  0.9500  0.7738  1.2031
 5391SOL     OW17613   2.767   0.581   9.663 -0.3190 -0.1550  0.3375
 5391SOL    HW117614   2.843   0.552   9.613  1.5819  3.8538  0.4736
 5391SOL    HW217615   2.693   0.568   9.604  1.2013  0.2170 -1.7638
 5392SOL     OW17616   0.442   3.608  12.185 -0.0700  0.5793  0.0701
 5392SOL    HW117617   0.419   3.698  12.208 -1.1668  1.0557 -2.4692
 5392SOL    HW217618   0.532   3.615  12.152  0.3791  0.4510  1.2349
 5393SOL     OW17619   1.153   7.044  11.750 -0.2438  0.1054 -0.7617
 5393SOL    HW117620   1.091   7.037  11.677 -2.4267  0.1111  0.9825
 5393SOL    HW217621   1.150   6.958  11.793  1.2289  0.0067 -0.8307
 5394SOL     OW17622   6.895   6.865  11.481 -0.1523  0.3426 -0.1996
 5394SOL    HW117623   6.965   6.874  11.416 -0.5024 -1.5102 -0.8874
 5394SOL    HW217624   6.941   6.868  11.565  0.8189 -1.0743 -0.6454
 5395SOL     OW17625   2.158   6.938  11.027 -0.1835  0.0967 -0.1029
 5395SOL    HW117626   2.079   6.884  11.031 -1.1637  1.4793 -0.0797
 5395SOL    HW217627   2.176   6.960  11.118  0.6549 -0.7610 -0.0406
 5396SOL     OW17628   1.574   5.624   8.815 -0.4199 -0.7058 -0.1984
 5396SOL    HW117629   1.540   5.603   8.729  0.5067  1.3211 -1.1186
 5396SOL    HW217630   1.669   5.620   8.805 -0.2163  1.9112 -0.0052
 5397SOL     OW17631   7.722   6.463  10.024 -1.0226  0.5009 -0.6913
 5397SOL    HW117632   7.688   6.552  10.011 -0.6544  0.8093  0.3324
 5397SOL    HW217633   7.809   6.476  10.063  0.1920 -0.2696 -2.9643
 5398SOL     OW17634   0.639   6.385  10.842 -0.4767 -0.0072 -0.0881
 5398SOL    HW117635   0.653   6.291  10.850 -1.0677 -0.3336 -2.1647
 5398SOL    HW217636   0.544   6.396  10.850 -0.3476  0.5272  0.8807
 5399SOL     OW17637   7.140   5.927  11.383  0.3705 -0.7990  0.4077
 5399SOL    HW117638   7.133   6.020  11.360  0.4380 -0.7887  0.4295
 5399SOL    HW217639   7.080   5.915  11.456 -0.7784 -1.0842 -0.5413
 5400SOL     OW17640   7.985   6.598   0.611  0.1746  0.1994 -0.1419
 5400SOL    HW117641   7.907   6.546   0.631 -0.6160 -0.1506 -3.5495
 5400SOL    HW217642   8.057   6.549   0.650 -1.1490 -0.0118  2.2091
 5401SOL     OW17643   0.887   6.707  10.626 -0.1473  0.1225 -0.2231
 5401SOL    HW117644   0.918   6.726  10.538 -0.0292  2.5739  0.2779
 5401SOL    HW217645   0.870   6.613  10.626  2.5475 -0.4530 -1.9747
 5402SOL     OW17646   1.434   4.981  10.308  0.2640 -0.3087  0.3303
 5402SOL    HW117647   1.378   4.934  10.370  0.5369  0.4706  1.1761
 5402SOL    HW217648   1.378   4.994  10.231 -1.0176  1.1485  1.4553
 5403SOL     OW17649   1.426   5.256   0.166  0.2859 -0.2245  0.3159
 5403SOL    HW117650   1.483   5.324   0.201  1.6044 -1.0003 -0.2835
 5403SOL    HW217651   1.417   5.277   0.073  2.0992 -1.7484 -0.2770
 5404SOL     OW17652   0.028   7.521  11.791 -0.1761  0.0129  0.0014
 5404SOL    HW117653   0.086   7.460  11.836 -1.4788 -1.2836 -0.0106
 5404SOL    HW217654  -0.004   7.472  11.715  1.9204  2.1036 -2.4330
 5405SOL     OW17655   2.133   6.232  11.072  0.2323 -0.4627  0.0446
 5405SOL    HW117656   2.180   6.153  11.043 -0.1202 -0.5194 -0.3762
 5405SOL    HW217657   2.183   6.304  11.034  0.2356 -0.5070 -0.0371
 5406SOL     OW17658   0.730   5.714  12.355 -0.5110 -0.2401 -0.0450
 5406SOL    HW117659   0.754   5.683  12.442 -1.6416  1.2106  0.8191
 5406SOL    HW217660   0.728   5.809  12.362  1.1948  0.0377 -2.1759
 5407SOL     OW17661   1.803   6.512   8.624 -0.2494 -0.1727  0.0041
 5407SOL    HW117662   1.808   6.425   8.664 -0.1203 -0.3639 -0.4262
 5407SOL    HW217663   1.891   6.528   8.590 -0.1702  0.2915  0.4193
 5408SOL     OW17664   1.201   7.573   9.167 -0.1057  0.2773 -0.1270
 5408SOL    HW117665   1.147   7.513   9.115  3.0015 -1.7837 -1.3321
 5408SOL    HW217666   1.171   7.561   9.257 -2.2931  0.0692 -0.8336
 5409SOL     OW17667   2.000   6.807  10.250  0.4786 -0.0190 -0.2356
 5409SOL    HW117668   2.083   6.840  10.216 -0.5176  2.4841 -0.4641
 5409SOL    HW217669   1.982   6.863  10.326 -1.1992 -0.2091 -0.4629
 5410SOL     OW17670   0.079   0.049   9.513 -0.3629  0.2333 -0.6684
 5410SOL    HW117671   0.118  -0.037   9.499  1.7451  0.8034  1.1381
 5410SOL    HW217672   0.153   0.109   9.513 -1.7337  2.0097 -1.4115
 5411SOL     OW17673   7.406   6.734  12.121  0.2244 -0.4680  0.0687
 5411SOL    HW117674   7.496   6.703  12.112  0.3652 -0.2659  0.6814
 5411SOL    HW217675   7.384   6.716  12.213  0.1621  0.8198  0.3314
 5412SOL     OW17676   1.038   6.737  12.002 -0.3626  0.3260 -0.1850
 5412SOL    HW117677   1.119   6.767  11.960  0.9063  0.8322  2.4499
 5412SOL    HW217678   1.024   6.650  11.966  0.5889  0.7449 -1.6852
 5413SOL     OW17679   0.675   5.089  10.258 -0.0176 -0.3504  0.0690
 5413SOL    HW117680   0.713   5.150  10.194 -0.0568 -2.5749 -2.2508
 5413SOL    HW217681   0.745   5.027  10.276 -0.1078  0.0753  2.0497
 5414SOL     OW17682   1.149   7.099   9.161 -0.0706 -0.1510  0.2869
 5414SOL    HW117683   1.056   7.102   9.183 -0.0209  0.4577  0.4419
 5414SOL    HW217684   1.153   7.050   9.079 -0.3764 -1.4859  1.0383
 5415SOL     OW17685   7.620   7.430   9.039 -0.1978 -0.3010 -0.3789
 5415SOL    HW117686   7.590   7.355   9.091  1.6607  0.5228  2.0243
 5415SOL    HW217687   7.696   7.397   8.992  0.0660 -0.1754 -0.0413
 5416SOL     OW17688   7.767   7.041  10.377  0.1733  0.1122 -0.1377
 5416SOL    HW117689   7.788   7.130  10.408  2.2768 -1.1384  2.4505
 5416SOL    HW217690   7.803   7.039  10.288  0.7180  1.6600  0.0006
 5417SOL     OW17691   0.999   6.854   9.816  0.2557 -0.3584  0.0670
 5417SOL    HW117692   0.947   6.784   9.857 -1.3371  0.3189 -0.6993
 5417SOL    HW217693   1.001   6.831   9.723 -0.5372  0.7318 -0.2416
 5418SOL     OW17694   0.596   6.896   0.925 -0.3923 -0.2777 -0.3410
 5418SOL    HW117695   0.532   6.907   0.995  0.4525 -0.6475  0.5279
 5418SOL    HW217696   0.566   6.819   0.877 -1.6845  0.7401 -1.2024
 5419SOL     OW17697   1.449   6.746  10.573 -0.1415  0.0875  0.6450
 5419SOL    HW117698   1.358   6.767  10.594 -0.2795  0.3000 -0.1177
 5419SOL    HW217699   1.478   6.690  10.645 -0.5888  0.7581  1.3642
 5420SOL     OW17700   2.966   5.895  10.495  0.1355  0.0065 -0.4717
 5420SOL    HW117701   3.007   5.966  10.544 -0.2573  0.6977 -1.1130
 5420SOL    HW217702   2.965   5.926  10.405 -0.6445 -0.5251 -0.6585
 5421SOL     OW17703   0.267   6.592  10.265  0.2036 -0.4670  0.3511
 5421SOL    HW117704   0.217   6.643  10.328 -0.4016 -0.5086 -0.0874
 5421SOL    HW217705   0.351   6.577  10.308  0.3854  0.8539  0.5025
 5422SOL     OW17706   2.865   6.182   9.259  0.5417 -0.0696  0.6682
 5422SOL    HW117707   2.816   6.176   9.176  2.2686 -0.9555 -0.3370
 5422SOL    HW217708   2.885   6.275   9.267  0.9135 -0.0551 -0.2701
 5423SOL     OW17709   1.153   6.551  11.058  1.1983 -0.0174  0.7016
 5423SOL    HW117710   1.139   6.644  11.040 -0.3394 -0.3342  0.0541
 5423SOL    HW217711   1.191   6.548  11.145  0.9097  1.2025  0.8830
 5424SOL     OW17712   2.622   5.474   8.162 -0.2340  0.2983 -0.2784
 5424SOL    HW117713   2.683   5.404   8.140  0.2681  1.3396 -2.5465
 5424SOL    HW217714   2.643   5.545   8.101 -0.9488  2.3267  1.6649
 5425SOL     OW17715   0.206   1.006  10.166  0.0203  0.0341 -0.4723
 5425SOL    HW117716   0.161   0.936  10.118 -0.4108 -1.1198  1.4845
 5425SOL    HW217717   0.298   0.979  10.168 -0.2131 -0.7330  0.6410
 5426SOL     OW17718   6.531   6.670   7.571  0.0925 -0.3976 -0.5461
 5426SOL    HW117719   6.437   6.666   7.553  0.0686 -1.3614 -0.2257
 5426SOL    HW217720   6.557   6.580   7.588  0.2620  0.2168  3.4499
 5427SOL     OW17721   0.200   5.931  10.959 -0.6007  0.3152  0.1850
 5427SOL    HW117722   0.169   5.859  11.013  0.6684 -0.7450 -0.4556
 5427SOL    HW217723   0.120   5.970  10.923 -1.3187 -0.5281  0.8342
 5428SOL     OW17724   2.484   7.018  11.159  0.2964  0.2099 -0.5444
 5428SOL    HW117725   2.457   6.939  11.205 -0.9469  0.2261 -1.1999
 5428SOL    HW217726   2.532   7.069  11.225 -0.4777 -0.2661  0.4192
 5429SOL     OW17727   1.283   4.841   8.540  0.7211  0.0920  0.7534
 5429SOL    HW117728   1.282   4.814   8.448 -1.0073  1.0227  0.4452
 5429SOL    HW217729   1.266   4.761   8.589 -1.5741  0.0386  0.0233
 5430SOL     OW17730   2.211   7.419  10.682 -0.2521  0.3184 -0.1086
 5430SOL    HW117731   2.123   7.428  10.719 -0.1483 -1.0713  0.5507
 5430SOL    HW217732   2.226   7.324  10.679  0.2506  0.4174 -2.5755
 5431SOL     OW17733   0.077   6.399  10.602  0.1092  0.3687  0.1059
 5431SOL    HW117734   0.085   6.343  10.680 -0.7142 -0.0817 -0.1184
 5431SOL    HW217735   0.024   6.473  10.631  2.0252  1.5906  0.6743
 5432SOL     OW17736   0.225   7.134  10.354  0.3299 -0.0019 -0.4030
 5432SOL    HW117737   0.200   7.223  10.332  1.2407  0.8057  1.5653
 5432SOL    HW217738   0.295   7.144  10.419  2.4720 -2.1301 -2.1899
 5433SOL     OW17739   0.603   0.386   0.732 -0.4706 -0.2656 -0.8026
 5433SOL    HW117740   0.541   0.386   0.659 -0.4245 -0.0927 -0.8426
 5433SOL    HW217741   0.601   0.297   0.765 -1.4620 -0.0185 -0.1751
 5434SOL     OW17742   0.361   7.312   9.732  0.0357 -0.6878 -0.2114
 5434SOL    HW117743   0.378   7.218   9.725 -0.4094 -0.6958 -1.3451
 5434SOL    HW217744   0.308   7.333   9.655  0.1993  0.5085 -0.0191
 5435SOL     OW17745   1.133   6.576   9.231 -0.3609 -0.3400  0.3778
 5435SOL    HW117746   1.176   6.529   9.302  0.3658  0.9701  0.8370
 5435SOL    HW217747   1.040   6.572   9.253 -0.2054 -0.5990  0.9993
 5436SOL     OW17748   5.881   7.751   9.508  0.0757 -0.0835  0.3153
 5436SOL    HW117749   5.864   7.842   9.485 -0.7454 -0.3139 -0.0239
 5436SOL    HW217750   5.828   7.700   9.446  0.4828 -0.7883  0.5368
 5437SOL     OW17751   7.602   6.483  11.094  0.1011  0.1259  0.1387
 5437SOL    HW117752   7.540   6.415  11.121  1.2358 -1.8036 -1.7375
 5437SOL    HW217753   7.571   6.511  11.008  0.1217  1.3943  0.5311
 5438SOL     OW17754   0.420   7.399  10.834 -0.3739  0.0176  0.2239
 5438SOL    HW117755   0.438   7.357  10.749 -0.5576 -0.0242  0.2055
 5438SOL    HW217756   0.415   7.326  10.896  0.1919  0.0803  0.3455
 5439SOL     OW17757   0.700   0.315  10.911  0.2134 -0.0632  0.4457
 5439SOL    HW117758   0.738   0.381  10.968 -0.6150  0.8959 -0.0715
 5439SOL    HW217759   0.762   0.242  10.913  2.1795  1.4726 -0.5084
 5440SOL     OW17760   2.201   7.837  10.239  0.9098 -0.2674 -0.0739
 5440SOL    HW117761   2.278   7.794  10.275 -0.3732 -1.6221  1.1961
 5440SOL    HW217762   2.145   7.854  10.316 -1.0998 -1.5389 -1.1684
 5441SOL     OW17763   0.793   5.331   9.756 -0.3574  0.2121  0.7032
 5441SOL    HW117764   0.753   5.365   9.676 -1.3685 -0.3338  0.9708
 5441SOL    HW217765   0.842   5.406   9.791  2.0635 -0.1139 -1.5971
 5442SOL     OW17766   6.313   4.219  11.422  0.4428 -0.1685  0.1200
 5442SOL    HW117767   6.402   4.245  11.447  0.6247  0.0209 -0.6811
 5442SOL    HW217768   6.296   4.269  11.342 -0.2713 -0.4326  0.1044
 5443SOL     OW17769   0.181   1.202   8.126 -0.9748  0.0040  0.3215
 5443SOL    HW117770   0.182   1.220   8.032 -1.0895 -2.1565 -0.1409
 5443SOL    HW217771   0.090   1.215   8.152 -0.3234  4.9035  1.1812
 5444SOL     OW17772   0.810   7.175  10.538 -0.5986 -0.1904  0.4141
 5444SOL    HW117773   0.895   7.176  10.494 -0.2822 -0.3616  0.9954
 5444SOL    HW217774   0.811   7.094  10.590 -1.0753 -0.1427  0.5050
 5445SOL     OW17775   1.430   6.818  11.250  0.0347 -0.2462 -0.1049
 5445SOL    HW117776   1.352   6.872  11.250  0.5630  0.5734  1.5312
 5445SOL    HW217777   1.397   6.728  11.254 -0.8192 -0.0477 -1.6602
 5446SOL     OW17778   0.297   7.439   8.713 -0.2175  0.6728  0.3268
 5446SOL    HW117779   0.384   7.476   8.693  0.4544 -0.5104  0.9592
 5446SOL    HW217780   0.270   7.396   8.632  0.8250 -0.8902  0.7555
 5447SOL     OW17781   1.403   5.928  11.388  0.3459  0.0599  0.1974
 5447SOL    HW117782   1.439   5.862  11.448  0.3208  0.0548  0.2076
 5447SOL    HW217783   1.310   5.905  11.381  0.3019  0.1992  0.3364
 5448SOL     OW17784   0.870   7.662   9.876 -0.2129  0.1941  0.1068
 5448SOL    HW117785   0.798   7.654   9.814  0.0809  0.4989 -0.2731
 5448SOL    HW217786   0.895   7.754   9.873 -0.4280  0.2950  0.9419
 5449SOL     OW17787   7.779   5.451   9.407  0.0760 -0.2432  0.0545
 5449SOL    HW117788   7.865   5.481   9.435  0.2013  0.7815 -1.3242
 5449SOL    HW217789   7.783   5.356   9.416  1.3272 -0.2058  0.0948
 5450SOL     OW17790   1.671   6.174  11.528  0.1005 -0.1438 -0.2420
 5450SOL    HW117791   1.652   6.251  11.474 -0.0893 -0.4012 -0.5496
 5450SOL    HW217792   1.735   6.204  11.592 -2.1906  1.0914  1.6093
 5451SOL     OW17793   1.636   5.814   9.790  0.2517  0.1263 -0.0784
 5451SOL    HW117794   1.601   5.730   9.761  1.9354  0.6376 -4.1654
 5451SOL    HW217795   1.565   5.876   9.776  0.7125  0.1906 -2.4831
 5452SOL     OW17796   2.354   5.153  11.723 -0.1639 -0.2129 -0.2816
 5452SOL    HW117797   2.447   5.154  11.746 -0.3436 -1.4305  0.6685
 5452SOL    HW217798   2.335   5.242  11.696  0.9811  0.3945  0.7802
 5453SOL     OW17799   6.854   5.772  10.008 -0.1598  0.5058  0.2231
 5453SOL    HW117800   6.936   5.820   9.994 -0.1495 -0.1646 -2.4296
 5453SOL    HW217801   6.826   5.744   9.921 -2.1600 -1.0701  1.2655
 5454SOL     OW17802   7.112   7.334  11.040  0.4399 -0.5911 -0.1158
 5454SOL    HW117803   7.030   7.378  11.060  0.8647  0.2574 -0.1948
 5454SOL    HW217804   7.145   7.378  10.962  0.1103 -2.1012 -1.1611
 5455SOL     OW17805   6.845   5.987  11.373  0.1106  0.3182 -0.0041
 5455SOL    HW117806   6.899   6.065  11.382  1.3829 -0.4315 -0.8765
 5455SOL    HW217807   6.829   5.959  11.463 -0.0826  1.3823  0.3071
 5456SOL     OW17808   6.433   6.766  11.047  0.1370 -0.3886 -0.0117
 5456SOL    HW117809   6.501   6.791  11.111  0.8420  1.2456 -1.3276
 5456SOL    HW217810   6.357   6.819  11.072  0.1894 -0.2657 -0.1126
 5457SOL     OW17811   0.541   5.397  10.749  0.5647 -0.1173  0.3063
 5457SOL    HW117812   0.460   5.354  10.775  0.2409  0.7026  0.7114
 5457SOL    HW217813   0.604   5.372  10.817  0.4547 -0.1943  0.3806
 5458SOL     OW17814   5.585   7.151  10.165  0.5322  0.5825 -0.2480
 5458SOL    HW117815   5.628   7.067  10.152  0.6728  0.9989 -3.4190
 5458SOL    HW217816   5.511   7.132  10.222  1.1048 -1.4643 -0.1023
 5459SOL     OW17817   1.409   7.460   8.484  0.4012 -0.5179 -0.1050
 5459SOL    HW117818   1.463   7.477   8.561  1.7416 -0.6411 -0.9877
 5459SOL    HW217819   1.406   7.364   8.477  0.1050 -0.5117 -0.0959
 5460SOL     OW17820   1.834   7.379   9.313  0.5567 -0.0514 -0.0135
 5460SOL    HW117821   1.833   7.377   9.409 -1.1408 -0.2394 -0.0082
 5460SOL    HW217822   1.825   7.288   9.286  1.2888 -0.0271 -0.3686
 5461SOL     OW17823   1.377   7.226   9.674 -0.0368  0.2894 -0.4675
 5461SOL    HW117824   1.428   7.256   9.749 -1.3973  2.8461 -0.4438
 5461SOL    HW217825   1.435   7.239   9.599  0.0028  1.5147 -0.2533
 5462SOL     OW17826   6.965   5.348  11.734 -0.3225 -0.0897 -0.4944
 5462SOL    HW117827   6.981   5.367  11.827 -1.5675 -1.9554  0.1453
 5462SOL    HW217828   7.049   5.313  11.703 -0.6805 -2.2478  0.7441
 5463SOL     OW17829   3.496   4.348  11.715 -0.0888  0.0649 -0.1648
 5463SOL    HW117830   3.406   4.357  11.744  0.3428 -0.2952  1.4278
 5463SOL    HW217831   3.548   4.385  11.787  1.0143  0.7436 -1.2735
 5464SOL     OW17832   1.166   6.248  11.417  0.2889  1.0628  0.1078
 5464SOL    HW117833   1.219   6.326  11.402  0.8915  0.5693 -0.3416
 5464SOL    HW217834   1.107   6.244  11.342 -1.0046  2.0750  1.0014
 5465SOL     OW17835   0.691   6.849  10.205  0.5379  0.3292  0.0884
 5465SOL    HW117836   0.780   6.839  10.237  0.3377 -1.7144  0.1085
 5465SOL    HW217837   0.641   6.877  10.281  0.6375 -1.4793  0.8689
 5466SOL     OW17838   2.041   4.509   8.824 -0.2846 -0.0624 -0.0056
 5466SOL    HW117839   2.090   4.453   8.885 -0.5755 -1.8675 -1.3318
 5466SOL    HW217840   2.107   4.566   8.786 -0.0156  0.7546  1.5876
 5467SOL     OW17841   0.055   5.883   8.449 -0.5285 -0.1326  0.6137
 5467SOL    HW117842   0.128   5.930   8.408  0.7715 -0.6562  2.2082
 5467SOL    HW217843   0.029   5.938   8.522 -0.0542 -1.0906  1.5337
 5468SOL     OW17844   1.889   5.415  11.662 -0.0617  0.2528  0.2944
 5468SOL    HW117845   1.978   5.437  11.690 -0.0927 -0.1596  0.7198
 5468SOL    HW217846   1.848   5.375  11.739  0.0722 -1.5423 -0.5156
 5469SOL     OW17847   1.229   6.924  10.593  0.1783  0.4836 -1.0395
 5469SOL    HW117848   1.220   6.935  10.687 -0.7229  0.1401 -1.0804
 5469SOL    HW217849   1.169   6.989  10.555  1.2159  1.2620 -1.4029
 5470SOL     OW17850   1.995   7.962   9.008  0.0923  0.0824 -0.5362
 5470SOL    HW117851   2.077   7.979   9.054  0.2266  0.2762 -0.8464
 5470SOL    HW217852   1.950   8.046   9.006  0.2156  0.1394 -1.0126
 5471SOL     OW17853   0.989   5.874   8.769 -0.1875  0.1229 -0.5471
 5471SOL    HW117854   0.900   5.847   8.748  0.1565 -2.0018  0.4335
 5471SOL    HW217855   0.979   5.937   8.839 -0.9957  2.1187 -2.3370
 5472SOL     OW17856   7.652   7.193   9.485  0.0537  0.3542 -0.5605
 5472SOL    HW117857   7.594   7.189   9.409 -0.4483 -1.1962 -0.1279
 5472SOL    HW217858   7.635   7.112   9.532  0.1492  1.4059  1.3743
 5473SOL     OW17859   1.080   7.410  10.085  0.0615 -0.2290 -0.1143
 5473SOL    HW117860   1.029   7.445  10.157  1.2558  0.5832  0.3726
 5473SOL    HW217861   1.107   7.487  10.034  2.2464 -0.4067  0.6506
 5474SOL     OW17862   2.099   6.567   7.229 -0.4876 -0.0425  0.0094
 5474SOL    HW117863   2.176   6.577   7.173  0.6716  0.0019  1.5579
 5474SOL    HW217864   2.108   6.480   7.267  0.0336  0.8180  1.9508
 5475SOL     OW17865   0.207   6.369  12.394 -0.0129 -0.1642  0.4374
 5475SOL    HW117866   0.223   6.445  12.338 -2.6936 -0.0746 -0.3244
 5475SOL    HW217867   0.244   6.296  12.344 -0.6057  0.1872 -0.5539
 5476SOL     OW17868   0.290   6.355  12.000 -0.1806 -0.1544  0.5998
 5476SOL    HW117869   0.228   6.308  11.944  1.4432  0.1659 -1.6107
 5476SOL    HW217870   0.284   6.446  11.972 -0.2562  0.2595  1.8967
 5477SOL     OW17871   7.988   5.405  12.136  0.0122 -0.4058 -0.7620
 5477SOL    HW117872   8.037   5.433  12.213 -0.9684 -3.5661  1.1933
 5477SOL    HW217873   7.924   5.475  12.121  2.2691  1.7839 -0.8090
 5478SOL     OW17874   0.351   7.035   9.651  0.1169  0.3087 -0.0214
 5478SOL    HW117875   0.270   7.021   9.601 -0.7275  0.4048  1.2537
 5478SOL    HW217876   0.338   6.985   9.731  1.4868  0.0624  0.0634
 5479SOL     OW17877   7.341   6.498   9.677  0.5149 -0.5427 -0.8091
 5479SOL    HW117878   7.367   6.511   9.768 -0.5314 -0.2631 -0.5414
 5479SOL    HW217879   7.386   6.417   9.651 -0.2292 -1.3764  0.3718
 5480SOL     OW17880   0.443   0.850  11.253 -0.0405  0.7175  0.2258
 5480SOL    HW117881   0.449   0.882  11.343  1.0888 -0.5647  0.6339
 5480SOL    HW217882   0.522   0.882  11.211  1.0116 -1.2375  0.5838
 5481SOL     OW17883   1.043   5.827   9.885  0.3447  0.1348 -0.0169
 5481SOL    HW117884   0.983   5.774   9.834  0.3372 -0.5219  0.6562
 5481SOL    HW217885   0.986   5.882   9.939  0.3505  1.0177 -0.8836
 5482SOL     OW17886   0.239   7.135   9.222  0.3083 -0.0092 -0.5118
 5482SOL    HW117887   0.180   7.101   9.154  0.2624 -0.0969 -0.4285
 5482SOL    HW217888   0.277   7.214   9.183 -1.4888  1.2771  0.2322
 5483SOL     OW17889   1.688   7.912   9.237  0.3841  0.1448  0.6787
 5483SOL    HW117890   1.620   7.846   9.252  1.1655 -0.5399  1.3514
 5483SOL    HW217891   1.641   7.988   9.204 -0.4818 -0.9194 -0.6267
 5484SOL     OW17892   2.611   5.816  10.882  0.2628  0.4573  0.4536
 5484SOL    HW117893   2.646   5.857  10.962  0.6059  1.4406 -0.1737
 5484SOL    HW217894   2.608   5.723  10.902  2.4085  0.4156  0.8858
 5485SOL     OW17895   1.047   7.395  10.641  0.7435 -0.2749 -0.0974
 5485SOL    HW117896   0.953   7.406  10.652  0.8943  2.6837 -0.7520
 5485SOL    HW217897   1.056   7.315  10.589 -1.3730 -0.7173  0.1222
 5486SOL     OW17898   0.869   6.253   9.352  0.0120 -0.1664 -0.7060
 5486SOL    HW117899   0.920   6.247   9.433 -2.0189 -1.1097  0.5826
 5486SOL    HW217900   0.894   6.175   9.303 -1.0710 -1.3281  0.5065
 5487SOL     OW17901   2.444   5.564   8.778 -0.3966  0.0352 -0.2034
 5487SOL    HW117902   2.492   5.642   8.752  1.8585 -0.7659  1.2704
 5487SOL    HW217903   2.479   5.494   8.724 -1.2176 -0.2671 -0.3623
 5488SOL     OW17904   0.310   7.025   8.705  0.0332 -0.0732  0.8173
 5488SOL    HW117905   0.309   6.950   8.646 -2.4845  0.5894 -0.1256
 5488SOL    HW217906   0.218   7.049   8.716  0.6273  1.7873  2.5176
 5489SOL     OW17907   7.680   5.530  10.951  0.7831 -0.0939  0.4837
 5489SOL    HW117908   7.764   5.532  10.904  0.2988  0.3251 -0.3928
 5489SOL    HW217909   7.625   5.471  10.899  0.5772 -0.4970  1.1446
 5490SOL     OW17910   7.817   6.266  11.014  0.4716 -0.3384  0.1836
 5490SOL    HW117911   7.861   6.202  10.959  1.5394  0.5178  0.0073
 5490SOL    HW217912   7.726   6.263  10.985  0.5649 -1.5454 -0.0269
 5491SOL     OW17913   0.534   7.756   9.348 -0.1774 -0.3559 -0.0710
 5491SOL    HW117914   0.622   7.718   9.341  0.9763  2.1343 -0.3211
 5491SOL    HW217915   0.477   7.681   9.364  1.8524 -2.1832 -0.8229
 5492SOL     OW17916   7.910   4.064   0.136  0.0707 -0.1912 -0.6904
 5492SOL    HW117917   7.942   4.069   0.226  1.1199 -1.1424 -0.9822
 5492SOL    HW217918   7.833   4.006   0.141 -0.5644  0.6664 -0.2541
 5493SOL     OW17919   7.829   6.268  11.299 -0.1007 -0.3151 -0.1090
 5493SOL    HW117920   7.736   6.252  11.318 -0.6190  2.3280  0.0018
 5493SOL    HW217921   7.837   6.256  11.204 -1.2019  1.8039 -0.5398
 5494SOL     OW17922   6.966   5.649  11.839 -0.4051  0.1105 -0.6070
 5494SOL    HW117923   7.045   5.608  11.803 -0.0512  0.8317 -0.6580
 5494SOL    HW217924   6.895   5.610  11.789 -0.0109  0.1335 -1.1969
 5495SOL     OW17925   1.761   3.777   0.295  0.1867 -0.2233  0.1558
 5495SOL    HW117926   1.781   3.695   0.338 -2.7572 -0.8153  0.6434
 5495SOL    HW217927   1.778   3.844   0.361 -1.1290 -0.8374  1.1613
 5496SOL     OW17928   1.963   6.634  11.295  0.6252  0.0922  0.2188
 5496SOL    HW117929   2.052   6.598  11.298  1.5834  2.2468 -0.0996
 5496SOL    HW217930   1.942   6.654  11.386  1.1007  0.9466  0.1535
 5497SOL     OW17931   2.700   6.118  11.484 -0.0883 -0.4225 -0.1949
 5497SOL    HW117932   2.723   6.203  11.446 -0.1562 -0.1282  0.4214
 5497SOL    HW217933   2.739   6.054  11.424  0.0359  0.0423 -0.6140
 5498SOL     OW17934   2.024   4.918  12.484  0.2193 -0.1818 -0.1214
 5498SOL    HW117935   2.093   4.957  12.538  0.4614 -1.3008  0.4144
 5498SOL    HW217936   2.070   4.854  12.430 -0.0500  0.7843 -1.5512
 5499SOL     OW17937   2.077   7.837  12.098  0.3842 -0.4782  0.0971
 5499SOL    HW117938   2.045   7.924  12.125 -0.3407 -1.0971  1.3029
 5499SOL    HW217939   2.018   7.811  12.028  0.8877  0.1884 -0.5894
 5500SOL     OW17940   0.204   5.165  12.040  0.6052 -0.3259 -0.5022
 5500SOL    HW117941   0.297   5.142  12.032  0.7077 -0.2787  0.4389
 5500SOL    HW217942   0.196   5.249  11.994  1.1459 -0.0624 -0.1319
 5501SOL     OW17943   2.369   6.942  11.548 -0.4446 -0.0262  0.0132
 5501SOL    HW117944   2.281   6.965  11.577 -0.7901 -1.1502 -0.0840
 5501SOL    HW217945   2.424   6.957  11.625 -0.3922  2.3339 -0.4206
 5502SOL     OW17946   0.294   6.195  12.217  0.0798 -0.4411  0.3311
 5502SOL    HW117947   0.292   6.259  12.147 -0.4086  0.1834  0.9019
 5502SOL    HW217948   0.227   6.131  12.194 -0.7681  0.2858  0.6918
 5503SOL     OW17949   7.614   0.537  12.042 -0.0886 -0.1620  0.3428
 5503SOL    HW117950   7.671   0.514  12.115  0.2181 -0.8920 -0.1186
 5503SOL    HW217951   7.568   0.456  12.020 -0.5733  0.1788  0.0614
 5504SOL     OW17952   0.565   6.998  11.017 -0.3101  0.0457  0.5946
 5504SOL    HW117953   0.482   6.961  11.047 -0.8423 -2.1743 -2.9845
 5504SOL    HW217954   0.631   6.932  11.042 -0.5953 -1.2296 -1.7764
 5505SOL     OW17955   0.862   5.299  11.208 -0.2177  0.7140  0.9018
 5505SOL    HW117956   0.868   5.204  11.216  0.5285  0.6525 -0.2392
 5505SOL    HW217957   0.929   5.322  11.144 -0.0186  2.0735  1.5627
 5506SOL     OW17958   1.796   7.217  10.084 -0.1406  0.0258  0.3356
 5506SOL    HW117959   1.871   7.158  10.081  0.5535  0.8410  0.9887
 5506SOL    HW217960   1.737   7.176  10.148  0.5845  0.2996  1.2044
 5507SOL     OW17961   1.767   5.829   1.558  0.4903  0.2781  0.1659
 5507SOL    HW117962   1.792   5.861   1.472 -2.1801  2.6233  0.1089
 5507SOL    HW217963   1.803   5.894   1.619 -0.7617  0.7179  0.4669
 5508SOL     OW17964   2.554   7.959  10.553 -0.1433  0.5312 -0.3007
 5508SOL    HW117965   2.549   8.044  10.510 -0.0773  1.5387  1.5819
 5508SOL    HW217966   2.536   7.977  10.645  2.3630 -1.0814  0.6247
 5509SOL     OW17967   1.155   7.442  11.445  0.0097  0.2032 -0.2837
 5509SOL    HW117968   1.083   7.462  11.386 -0.0759 -0.0184 -0.2550
 5509SOL    HW217969   1.123   7.469  11.532 -0.0455  0.0882 -0.2681
 5510SOL     OW17970   2.409   6.539  11.897 -0.1907  0.1724 -0.0869
 5510SOL    HW117971   2.370   6.584  11.823 -1.8710 -0.6125  0.2881
 5510SOL    HW217972   2.368   6.453  11.899  0.1169  0.0185  1.4984
 5511SOL     OW17973   1.712   6.093  12.372 -0.4138  0.6482 -0.1668
 5511SOL    HW117974   1.757   6.118  12.453 -1.0327  0.1647  0.3377
 5511SOL    HW217975   1.620   6.085  12.397 -0.0845 -5.2019  0.6896
 5512SOL     OW17976   7.387   6.199   1.566  0.0390 -0.7821  0.3859
 5512SOL    HW117977   7.365   6.292   1.579 -1.5123 -0.7467 -1.8932
 5512SOL    HW217978   7.388   6.162   1.655  0.6513  1.3832  1.3453
 5513SOL     OW17979   7.798   6.472  12.219 -0.7110 -0.1616  0.1145
 5513SOL    HW117980   7.732   6.416  12.178 -0.4491 -1.1185  0.9742
 5513SOL    HW217981   7.785   6.461  12.313  1.6887 -1.6634  0.3509
 5514SOL     OW17982   1.754   5.453   0.775  0.2992 -0.4328 -0.0370
 5514SOL    HW117983   1.812   5.495   0.837  2.4349  1.6518 -3.1419
 5514SOL    HW217984   1.674   5.506   0.775  0.3707 -0.3259  0.7130
 5515SOL     OW17985   7.502   4.935  12.316 -0.2863 -0.2439 -0.1437
 5515SOL    HW117986   7.590   4.938  12.277 -0.0639  0.2285  0.3695
 5515SOL    HW217987   7.463   5.020  12.293 -0.3347 -0.1602  0.2335
 5516SOL     OW17988   1.966   5.715  10.258  0.2487 -0.6589 -0.7541
 5516SOL    HW117989   1.878   5.734  10.292  1.0278  0.7149  0.6577
 5516SOL    HW217990   1.975   5.621  10.267  0.0664 -0.4924  2.2105
 5517SOL     OW17991   2.431   3.973  11.287 -0.0924 -0.1316 -0.3977
 5517SOL    HW117992   2.523   3.999  11.286  0.0496 -0.5995  0.0280
 5517SOL    HW217993   2.383   4.055  11.281  0.3552  0.0893 -0.9986
 5518SOL     OW17994   2.416   6.429   0.181  0.0822  0.2161  0.0042
 5518SOL    HW117995   2.369   6.427   0.265  1.6143  1.0994  0.9266
 5518SOL    HW217996   2.497   6.381   0.197 -0.1527 -0.6820 -1.3576
 5519SOL     OW17997   0.440   4.894  11.626  0.6440  0.2529  0.5405
 5519SOL    HW117998   0.504   4.827  11.601 -1.1266 -0.9642 -1.0995
 5519SOL    HW217999   0.434   4.951  11.549 -0.6557 -0.0485  0.3943
 5520SOL     OW18000   1.145   4.760  12.357 -0.3086 -0.4163  0.5294
 5520SOL    HW118001   1.168   4.699  12.286  1.2000 -0.0968  0.7138
 5520SOL    HW218002   1.176   4.717  12.436 -0.0939  0.1690  0.7656
 5521SOL     OW18003   1.279   6.743  11.866 -0.0075  0.3110 -0.2236
 5521SOL    HW118004   1.325   6.737  11.783  2.7117  1.7426  1.0616
 5521SOL    HW218005   1.343   6.716  11.931 -2.0186 -0.6848  1.4896
 5522SOL     OW18006   2.574   5.287  10.752 -0.7600  0.0005  0.2059
 5522SOL    HW118007   2.555   5.363  10.697 -1.3118 -0.2274  0.0785
 5522SOL    HW218008   2.655   5.251  10.715  0.5222  1.5602  1.3840
 5523SOL     OW18009   2.244   5.905  11.243 -0.5094  0.3361 -0.2521
 5523SOL    HW118010   2.337   5.920  11.259 -0.4290 -0.2238 -0.1569
 5523SOL    HW218011   2.229   5.934  11.153 -0.1863  0.1946 -0.3510
 5524SOL     OW18012   0.863   7.083   9.709 -0.2056 -0.0196 -0.3886
 5524SOL    HW118013   0.954   7.079   9.738 -0.4197  1.3991  0.5941
 5524SOL    HW218014   0.814   7.034   9.775 -0.0387 -1.8930 -1.6060
 5525SOL     OW18015   7.817   7.441   0.900 -0.0721 -0.1067  0.0045
 5525SOL    HW118016   7.910   7.446   0.876 -0.1741 -1.5642 -0.7686
 5525SOL    HW218017   7.791   7.533   0.912  1.4956  0.3218  0.4045
 5526SOL     OW18018   1.695   7.635  10.112  0.1085 -0.2431 -0.1490
 5526SOL    HW118019   1.735   7.614  10.028  1.9211 -0.0132  0.6191
 5526SOL    HW218020   1.633   7.706  10.092  0.2022 -0.4869 -1.3437
 5527SOL     OW18021   2.095   0.037  12.447 -0.0713  0.2203  0.5484
 5527SOL    HW118022   2.044   0.102  12.399  0.6577  0.1482 -0.3521
 5527SOL    HW218023   2.043   0.018  12.525 -1.6743 -0.2408 -0.5882
 5528SOL     OW18024   1.528   4.443  12.185  0.0961 -0.2197  0.1335
 5528SOL    HW118025   1.555   4.370  12.131  1.8155  0.5231 -0.0636
 5528SOL    HW218026   1.556   4.420  12.274 -0.3529 -0.2771  0.2646
 5529SOL     OW18027   1.348   6.102  11.653  0.1834  0.1521  0.2265
 5529SOL    HW118028   1.418   6.052  11.694 -0.3026 -1.7097 -1.0738
 5529SOL    HW218029   1.344   6.069  11.563 -1.7809  0.8311  0.0084
 5530SOL     OW18030   7.589   5.939   1.011 -0.4345  0.1640  0.0743
 5530SOL    HW118031   7.668   5.903   0.971 -0.5586  2.0277 -2.0309
 5530SOL    HW218032   7.607   5.938   1.105  1.4674 -0.7992 -0.2623
 5531SOL     OW18033   2.164   6.032   0.384 -0.0397  0.1698  0.4391
 5531SOL    HW118034   2.150   6.121   0.351 -3.3042  0.1851  1.4803
 5531SOL    HW218035   2.224   6.043   0.458 -0.0103  1.4202  0.2433
 5532SOL     OW18036   0.230   6.792   0.525 -0.8111  0.5726  0.0338
 5532SOL    HW118037   0.236   6.843   0.606 -0.3792  1.6426 -0.6510
 5532SOL    HW218038   0.141   6.808   0.493 -1.0193  0.0587  0.3549
 5533SOL     OW18039   0.647   7.517  10.421 -0.0962 -0.0602  0.4332
 5533SOL    HW118040   0.568   7.463  10.416  0.0760 -0.6843  2.8950
 5533SOL    HW218041   0.618   7.603  10.391 -0.5325 -1.2369 -2.9709
 5534SOL     OW18042   2.393   6.658  11.118 -0.2713  0.0636  0.1367
 5534SOL    HW118043   2.317   6.698  11.161 -0.3273  0.1630 -0.0547
 5534SOL    HW218044   2.454   6.730  11.105 -0.4708  0.1317 -0.4237
 5535SOL     OW18045   7.561   5.467  11.498 -0.1238 -0.0275  0.4042
 5535SOL    HW118046   7.537   5.560  11.494 -1.0055 -0.1450  2.1977
 5535SOL    HW218047   7.490   5.426  11.546  0.0990 -1.7197 -0.6525
 5536SOL     OW18048   7.878   7.274  10.482 -0.0828  0.0593 -0.1165
 5536SOL    HW118049   7.892   7.339  10.414 -0.0681 -0.5186 -0.6757
 5536SOL    HW218050   7.935   7.302  10.554  0.2616  0.4106 -0.5211
 5537SOL     OW18051   7.418   5.110  11.804 -0.6562 -0.5345 -0.6367
 5537SOL    HW118052   7.439   5.016  11.804  1.0068 -0.2242 -2.4577
 5537SOL    HW218053   7.501   5.153  11.820 -0.0878  0.7063 -5.3153
 5538SOL     OW18054   7.175   6.305  10.847  0.2499  0.1211  0.0666
 5538SOL    HW118055   7.120   6.333  10.773  0.2059 -0.6748 -0.2119
 5538SOL    HW218056   7.252   6.266  10.806  0.2561 -0.2696  0.4436
 5539SOL     OW18057   0.017   7.485  10.658 -0.7020 -0.0014  0.0006
 5539SOL    HW118058  -0.029   7.493  10.741 -3.9998 -0.4515 -1.6193
 5539SOL    HW218059  -0.019   7.555  10.603 -1.1136 -1.6930 -2.0299
 5540SOL     OW18060   0.264   4.599  11.846 -0.2411 -0.2549 -0.2842
 5540SOL    HW118061   0.272   4.611  11.752 -4.0984  2.8802 -0.4910
 5540SOL    HW218062   0.245   4.506  11.857  1.6248 -0.9640 -2.3649
 5541SOL     OW18063   0.253   3.237  10.914  0.0381  0.0202  0.2486
 5541SOL    HW118064   0.215   3.261  10.999 -1.2084 -2.1091  0.3437
 5541SOL    HW218065   0.223   3.305  10.854  1.1730  1.7352  1.5027
 5542SOL     OW18066   0.447   7.328  11.532 -0.1272 -0.0485 -0.4548
 5542SOL    HW118067   0.375   7.343  11.470 -0.0276 -1.6865 -1.0048
 5542SOL    HW218068   0.508   7.400  11.515 -0.4501 -0.0495 -1.7527
 5543SOL     OW18069   1.541   6.685   0.004  0.2225 -0.2090 -0.2186
 5543SOL    HW118070   1.476   6.646  -0.054  0.1627 -0.5455  0.0746
 5543SOL    HW218071   1.597   6.737  -0.054 -0.9956  1.0243 -0.3434
 5544SOL     OW18072   0.504   6.118   0.812  0.3204 -0.4254 -0.4936
 5544SOL    HW118073   0.487   6.179   0.741 -0.8727  0.1981  0.3122
 5544SOL    HW218074   0.457   6.038   0.788  0.3920 -0.4135 -0.6731
 5545SOL     OW18075   1.882   7.122  11.632 -0.2028 -0.4198 -0.2692
 5545SOL    HW118076   1.812   7.092  11.690 -0.6424 -0.1737 -0.6628
 5545SOL    HW218077   1.848   7.203  11.594  1.0067  0.6510  0.8466
 5546SOL     OW18078   7.030   5.951   0.942 -0.4139  0.1612  0.2094
 5546SOL    HW118079   7.068   5.970   1.028 -0.8144 -1.4222  0.7697
 5546SOL    HW218080   7.075   5.871   0.913 -1.5163 -0.3034 -0.2698
 5547SOL     OW18081   0.244   5.023  11.786  0.0108  0.6621  0.6137
 5547SOL    HW118082   0.273   4.996  11.873 -0.6819 -0.6499  0.4617
 5547SOL    HW218083   0.294   4.969  11.725 -0.8138  0.2653  0.2697
 5548SOL     OW18084   1.280   6.067  12.120 -0.1096  0.3032  0.1315
 5548SOL    HW118085   1.313   6.000  12.180 -1.6405 -0.5989  0.0257
 5548SOL    HW218086   1.280   6.147  12.172  0.0681 -0.1506  0.8462
 5549SOL     OW18087   7.785   6.438   0.755 -0.1804  0.1555  0.2672
 5549SOL    HW118088   7.813   6.347   0.760 -0.7988 -0.0082  0.9653
 5549SOL    HW218089   7.793   6.471   0.845 -1.2691  0.3754  0.3075
 5550SOL     OW18090   0.473   6.798   0.412 -0.3326 -0.0781  0.0788
 5550SOL    HW118091   0.463   6.881   0.365  3.3673  0.8955  0.7030
 5550SOL    HW218092   0.393   6.791   0.464 -0.6950  3.2789  0.2225
 5551SOL     OW18093   0.663   6.372  11.608 -0.2585  0.4080  0.1749
 5551SOL    HW118094   0.617   6.300  11.563 -0.5328  0.2854  0.6479
 5551SOL    HW218095   0.601   6.402  11.675  0.2311  0.4553  0.6086
 5552SOL     OW18096   7.919   5.771   0.578 -0.4049 -0.1482 -0.1546
 5552SOL    HW118097   7.962   5.687   0.561 -0.7644 -0.9931  2.6430
 5552SOL    HW218098   7.831   5.748   0.607 -0.7262  1.2364  0.0405
 5553SOL     OW18099   0.399   3.885  12.218  0.3818 -0.5336  0.1153
 5553SOL    HW118100   0.370   3.954  12.277  2.8686 -1.1814  2.2957
 5553SOL    HW218101   0.493   3.899  12.210  0.4483 -1.7985 -1.9980
 5554SOL     OW18102   1.804   4.973   0.166 -0.3574 -0.0547 -0.2646
 5554SOL    HW118103   1.875   4.956   0.103  0.2464 -0.6011  0.5304
 5554SOL    HW218104   1.754   4.891   0.168  0.8522 -0.8397  1.4442
 5555SOL     OW18105   2.247   7.269  11.664 -0.1870 -0.3800  0.6093
 5555SOL    HW118106   2.191   7.324  11.610  0.8954 -1.0446 -1.3087
 5555SOL    HW218107   2.335   7.306  11.652  0.0716 -0.4682  2.0634
 5556SOL     OW18108   1.499   5.044  11.932  0.1169 -0.3631 -0.0627
 5556SOL    HW118109   1.569   5.092  11.886 -2.1314  1.1379 -2.1530
 5556SOL    HW218110   1.458   5.110  11.988 -1.3869 -0.4724 -1.0066
 5557SOL     OW18111   3.262   4.482  10.434  0.3953  0.0144  0.1202
 5557SOL    HW118112   3.341   4.529  10.461  0.9913 -0.2608 -1.1141
 5557SOL    HW218113   3.263   4.485  10.339 -1.7335  1.0575  0.0778
 5558SOL     OW18114   0.851   7.375  12.317 -0.2289  0.3344 -0.4442
 5558SOL    HW118115   0.888   7.385  12.229 -0.5652  0.5499 -0.5656
 5558SOL    HW218116   0.843   7.281  12.329  0.4103  0.2851 -0.3913
 5559SOL     OW18117   1.870   6.219  12.192  0.3495  0.0670  0.2851
 5559SOL    HW118118   1.895   6.156  12.125 -1.8096  1.7807 -2.3422
 5559SOL    HW218119   1.815   6.169  12.252  2.2230 -1.4799  0.8114
 5560SOL     OW18120   2.696   5.789  12.065  0.5531  0.5750 -0.3543
 5560SOL    HW118121   2.642   5.804  11.988 -0.4357 -3.2546 -0.5925
 5560SOL    HW218122   2.639   5.744  12.127  2.5843 -0.7383  0.6740
 5561SOL     OW18123   6.743   6.740   0.842  0.0160  0.2388  0.6743
 5561SOL    HW118124   6.653   6.713   0.822  0.3149  0.0741 -0.5575
 5561SOL    HW218125   6.738   6.778   0.929 -1.3911  0.9217  0.3210
 5562SOL     OW18126   1.101   7.008  10.856 -0.5182  0.1044  0.0207
 5562SOL    HW118127   1.192   6.999  10.885  0.7523  2.9501 -2.5485
 5562SOL    HW218128   1.061   7.065  10.922  0.4307  1.1814 -0.3007
 5563SOL     OW18129   2.538   5.984   0.184 -0.3943  0.0250 -0.1949
 5563SOL    HW118130   2.569   5.985   0.094 -0.5957 -1.7578 -0.3051
 5563SOL    HW218131   2.574   6.064   0.222  0.9645  0.0366 -1.4252
 5564SOL     OW18132   1.364   7.309  10.988 -0.6165  0.2708 -0.2984
 5564SOL    HW118133   1.332   7.346  10.906 -0.7087 -0.2767 -0.5152
 5564SOL    HW218134   1.287   7.304  11.044 -0.7028 -0.0241 -0.4370
 5565SOL     OW18135   0.695   5.999  12.348  0.0152 -0.3893  0.0288
 5565SOL    HW118136   0.711   5.979  12.441  1.4862 -2.6561 -0.6113
 5565SOL    HW218137   0.601   5.990  12.337 -0.1839 -0.0548  1.3017
 5566SOL     OW18138   3.526   6.213  10.907 -0.4355  0.5598 -0.2632
 5566SOL    HW118139   3.492   6.125  10.924 -1.3263  0.7665 -0.8798
 5566SOL    HW218140   3.548   6.213  10.814  0.5313  0.6813 -0.0394
 5567SOL     OW18141   1.492   6.565  10.336  0.0926 -0.1521  0.2962
 5567SOL    HW118142   1.465   6.608  10.417  0.9995 -1.4845  1.3614
 5567SOL    HW218143   1.530   6.482  10.365  0.5085 -0.6346 -1.5050
 5568SOL     OW18144   1.638   6.110  10.823 -0.1149  0.0245  0.1806
 5568SOL    HW118145   1.682   6.191  10.847 -0.7656  1.0815 -1.9342
 5568SOL    HW218146   1.676   6.043  10.880  1.5995  1.5260  0.8675
 5569SOL     OW18147   0.413   5.921  12.308  0.3000 -0.2668  1.0945
 5569SOL    HW118148   0.403   5.845  12.251  0.4305 -1.6069  2.7605
 5569SOL    HW218149   0.325   5.956  12.318  0.1081 -0.6842  0.9031
 5570SOL     OW18150   1.338   5.892  12.332  0.3176  0.0139  0.4911
 5570SOL    HW118151   1.247   5.864  12.343  0.0034  0.2988 -1.1259
 5570SOL    HW218152   1.386   5.811  12.314  0.5085 -0.2109  1.9146
 5571SOL     OW18153   1.411   6.129  12.419  0.4066 -0.4705 -0.5197
 5571SOL    HW118154   1.374   6.043  12.398 -0.1121 -0.1014 -1.1789
 5571SOL    HW218155   1.335   6.183  12.443  0.7521 -0.2556  0.0970
 5572SOL     OW18156   1.095   6.742  12.265  0.5345 -0.4016 -0.3383
 5572SOL    HW118157   1.004   6.758  12.287  1.0741  0.9123  1.1566
 5572SOL    HW218158   1.095   6.727  12.170 -1.4041 -2.1657 -0.1179
 5573SOL     OW18159   2.072   5.929   0.001 -0.1611 -0.6688 -0.7107
 5573SOL    HW118160   2.033   5.842   0.012 -0.1394 -0.8780 -2.0560
 5573SOL    HW218161   2.142   5.932   0.066 -2.3837 -0.2467  1.8533
 5574SOL     OW18162   0.731   5.391  12.222  0.4926  0.4869 -0.1022
 5574SOL    HW118163   0.721   5.474  12.174 -1.7487  0.6372  0.5128
 5574SOL    HW218164   0.729   5.324  12.154 -1.5320  0.7635 -0.3919
 5575SOL     OW18165   2.794   7.833  10.534  0.9873 -0.0002 -0.2396
 5575SOL    HW118166   2.705   7.856  10.558  1.1358 -0.9519  1.3783
 5575SOL    HW218167   2.832   7.914  10.500 -0.0437  0.7926  0.4397
 5576SOL     OW18168   0.287   5.275   0.406 -0.7773 -0.4021  0.3550
 5576SOL    HW118169   0.348   5.292   0.478 -1.0646  1.3474  0.2385
 5576SOL    HW218170   0.303   5.347   0.344 -1.8518 -0.8115 -0.4281
 5577SOL     OW18171   0.381   6.892   2.321  0.5273 -0.3563 -0.1896
 5577SOL    HW118172   0.411   6.919   2.235 -0.4484  1.3837 -0.0221
 5577SOL    HW218173   0.382   6.796   2.318 -2.2178 -0.4596 -3.1730
 5578SOL     OW18174   0.510   4.840  12.298  0.3546 -0.0262  0.2995
 5578SOL    HW118175   0.501   4.817  12.206 -3.4757 -0.2425  0.5748
 5578SOL    HW218176   0.567   4.771  12.334  1.2934 -0.3742 -1.7104
 5579SOL     OW18177   7.163   5.096  11.728 -0.2094  0.6219 -0.1609
 5579SOL    HW118178   7.256   5.096  11.752 -0.3750 -1.8335  0.8059
 5579SOL    HW218179   7.163   5.087  11.633  0.5613  0.0362 -0.1182
 5580SOL     OW18180   2.408   6.358   9.647  0.3551 -0.2061 -0.3953
 5580SOL    HW118181   2.475   6.302   9.685 -0.0621 -0.7825 -0.5082
 5580SOL    HW218182   2.347   6.298   9.604 -1.0291  0.1835  0.9230
 5581SOL     OW18183   1.732   5.128   0.837 -0.0286  0.3087  0.1322
 5581SOL    HW118184   1.666   5.114   0.904 -0.5129  1.3785 -0.0905
 5581SOL    HW218185   1.780   5.206   0.866  0.0052  0.5572 -0.5563
 5582SOL     OW18186   1.375   5.763  11.139 -0.3555 -0.5353  0.2770
 5582SOL    HW118187   1.413   5.782  11.053  0.8057 -1.6806  0.5270
 5582SOL    HW218188   1.391   5.843  11.190 -0.8695  0.0745 -0.4881
 5583SOL     OW18189   1.271   6.810  10.099  0.7085  0.3586 -0.5850
 5583SOL    HW118190   1.357   6.850  10.084  0.0877  1.6745 -0.8191
 5583SOL    HW218191   1.267   6.738  10.036  0.7309  1.7442 -2.2415
 5584SOL     OW18192   2.247   5.685   0.413 -0.5711  0.4380 -0.1276
 5584SOL    HW118193   2.208   5.729   0.337 -1.4727  0.9670  0.6115
 5584SOL    HW218194   2.330   5.731   0.427  0.2452 -0.5102 -1.5489
 5585SOL     OW18195   7.771   5.107  11.366 -0.3084  0.1433  0.2992
 5585SOL    HW118196   7.862   5.076  11.360  0.1095  1.5591 -1.4308
 5585SOL    HW218197   7.761   5.132  11.458  1.4402  1.0089  0.2886
 5586SOL     OW18198   0.387   5.693  12.136  0.0075  0.1416 -0.7759
 5586SOL    HW118199   0.394   5.651  12.050  0.2297 -0.9221 -0.2572
 5586SOL    HW218200   0.437   5.636  12.194  0.1175  1.0193  0.0033
 5587SOL     OW18201   0.841   5.981   2.238  0.0827  0.4902 -0.7894
 5587SOL    HW118202   0.857   6.056   2.182  0.7431  0.5114 -0.5821
 5587SOL    HW218203   0.759   6.001   2.283  0.3873  1.2135 -0.5383
 5588SOL     OW18204   7.609   7.124   1.329 -0.6076 -0.3198 -0.3585
 5588SOL    HW118205   7.703   7.134   1.311 -0.1845 -0.5890  1.5212
 5588SOL    HW218206   7.584   7.205   1.372 -0.9645 -0.7268  0.2121
 5589SOL     OW18207   7.124   0.128   0.508 -0.0849  0.5151 -0.0081
 5589SOL    HW118208   7.074   0.192   0.457 -1.6660 -1.2988 -0.8654
 5589SOL    HW218209   7.091   0.136   0.597  0.2321  1.3451  0.0409
 5590SOL     OW18210   2.560   6.983   0.099 -0.1363 -0.0696 -0.1339
 5590SOL    HW118211   2.515   6.929   0.033  1.7349 -0.5945 -1.0551
 5590SOL    HW218212   2.549   6.935   0.181 -3.0022  0.8783  0.1339
 5591SOL     OW18213   1.975   5.976   1.085  0.2692 -0.2058  0.4899
 5591SOL    HW118214   1.923   6.020   1.152  0.1455 -0.0768  0.3081
 5591SOL    HW218215   2.064   5.974   1.122  0.0384 -0.9170  1.0436
 5592SOL     OW18216   1.704   5.244  11.779  0.8325 -0.3337  0.4607
 5592SOL    HW118217   1.676   5.240  11.688 -1.2905 -0.8255  1.0844
 5592SOL    HW218218   1.788   5.198  11.780  2.2080  1.8513 -1.6400
 5593SOL     OW18219   1.746   3.235  11.124 -0.1232  0.5004  0.0470
 5593SOL    HW118220   1.761   3.162  11.183 -0.7281  1.3102  1.2469
 5593SOL    HW218221   1.826   3.241  11.071  0.2500 -0.5138  0.4852
 5594SOL     OW18222   0.957   5.569   0.335 -0.1040 -0.1263  0.0697
 5594SOL    HW118223   0.943   5.663   0.329  1.8073  0.1190 -1.4040
 5594SOL    HW218224   0.876   5.531   0.303 -0.9523  0.9762  0.8082
 5595SOL     OW18225   0.530   6.042   1.097 -0.5310 -0.2628 -0.1578
 5595SOL    HW118226   0.498   6.070   1.011 -1.6001 -0.2410  0.2231
 5595SOL    HW218227   0.585   6.113   1.127  1.4805 -1.1096 -1.6436
 5596SOL     OW18228   0.685   5.497  11.964 -0.4879 -0.0246  0.8072
 5596SOL    HW118229   0.601   5.449  11.959  0.2049 -1.1737 -0.8381
 5596SOL    HW218230   0.744   5.446  11.908  0.5151  2.3655 -0.4235
 5597SOL     OW18231   1.976   5.482  11.324 -0.9283 -0.5069  0.7722
 5597SOL    HW118232   1.956   5.568  11.360 -0.5678  0.1503 -0.5348
 5597SOL    HW218233   1.920   5.474  11.246  0.0958 -0.8154  0.0397
 5598SOL     OW18234   1.211   5.103   0.584  0.1009  0.1169  0.0040
 5598SOL    HW118235   1.280   5.083   0.520  0.3429  1.1763 -0.0897
 5598SOL    HW218236   1.157   5.169   0.541  0.0793  0.6039  0.7674
 5599SOL     OW18237   1.731   6.548   0.152 -0.3122  0.7066  0.2084
 5599SOL    HW118238   1.661   6.608   0.127 -0.2148  0.9344  0.4844
 5599SOL    HW218239   1.758   6.507   0.069 -1.2051  0.1390  0.1765
 5600SOL     OW18240   1.351   6.539  12.332 -0.0375  0.0658  0.1707
 5600SOL    HW118241   1.304   6.477  12.277  0.3301  0.8441 -1.0540
 5600SOL    HW218242   1.298   6.618  12.329 -0.7000 -0.2595  2.0245
 5601SOL     OW18243   2.725   0.056  11.304  0.2603 -0.2692 -0.1001
 5601SOL    HW118244   2.723   0.103  11.221 -0.5878  1.1846  0.7126
 5601SOL    HW218245   2.817   0.061  11.333  0.9531 -2.2624 -1.7061
 5602SOL     OW18246   7.589   7.378   1.453  0.0517  0.0121 -0.2986
 5602SOL    HW118247   7.563   7.335   1.534  0.0053 -0.4513 -0.5593
 5602SOL    HW218248   7.623   7.463   1.481  2.0606 -0.9616  0.4374
 5603SOL     OW18249   2.737   5.938  11.096 -0.0470  0.1331 -0.4233
 5603SOL    HW118250   2.768   5.955  11.185 -1.0055  3.4349 -0.6027
 5603SOL    HW218251   2.816   5.943  11.042  0.0883  1.5894 -0.1182
 5604SOL     OW18252   0.118   5.962  12.360 -0.1835 -0.6008  0.5430
 5604SOL    HW118253   0.061   6.022  12.314 -0.6379 -1.6441 -0.2908
 5604SOL    HW218254   0.059   5.898  12.400  0.3319 -1.0873  0.5496
 5605SOL     OW18255   0.843   5.959  11.870  0.2212 -0.2355 -0.1293
 5605SOL    HW118256   0.910   5.959  11.802  0.2289  2.2614 -0.1960
 5605SOL    HW218257   0.840   5.868  11.900  1.1010 -1.1497 -2.5658
 5606SOL     OW18258   0.403   7.060  11.581  0.7943 -0.3478 -0.0946
 5606SOL    HW118259   0.314   7.057  11.547  0.6072 -1.1586  0.4713
 5606SOL    HW218260   0.434   7.148  11.558 -0.3477  0.1473  0.2250
 5607SOL     OW18261   0.921   6.824   0.409  0.2911  0.0614  0.5406
 5607SOL    HW118262   1.015   6.815   0.397  0.3435 -1.0525  1.6425
 5607SOL    HW218263   0.899   6.762   0.479 -1.4884 -0.7951 -0.7028
 5608SOL     OW18264   6.917   6.463   0.561  0.4074 -0.4430 -0.4111
 5608SOL    HW118265   6.860   6.536   0.585  0.9871 -0.5594  1.4927
 5608SOL    HW218266   7.000   6.505   0.538  0.2683 -0.4228 -0.8951
 5609SOL     OW18267   0.661   6.944  11.727 -0.0718  0.2619  0.1040
 5609SOL    HW118268   0.695   6.874  11.672  1.8056  0.9053  0.4006
 5609SOL    HW218269   0.574   6.962  11.691 -1.2020 -3.0352  0.8206
 5610SOL     OW18270   1.064   7.936  12.432  0.2499 -0.2367  0.1272
 5610SOL    HW118271   1.008   7.996  12.480 -0.7022  1.3047 -2.6718
 5610SOL    HW218272   1.009   7.860  12.414  0.8049 -1.1063  1.8697
 5611SOL     OW18273   1.054   6.020  11.565  0.0523  0.2040  0.9379
 5611SOL    HW118274   1.045   6.038  11.472  1.0389  0.7818  0.9429
 5611SOL    HW218275   1.114   5.946  11.569  0.4282  0.5133  1.1239
 5612SOL     OW18276   1.583   0.346  10.324  0.0452 -0.3254  0.0425
 5612SOL    HW118277   1.552   0.285  10.258 -1.7192  0.7395 -0.1541
 5612SOL    HW218278   1.550   0.432  10.297  0.7652  0.4213  1.3684
 5613SOL     OW18279   1.218   5.838   0.123  0.2038  0.2850  0.4491
 5613SOL    HW118280   1.172   5.807   0.045  0.0620  0.5594  0.4210
 5613SOL    HW218281   1.302   5.792   0.120 -0.0617 -0.2078  0.4991
 5614SOL     OW18282   1.984   3.889  11.849  0.5195  0.3783  0.3788
 5614SOL    HW118283   2.065   3.936  11.870 -0.2449  1.7038  0.5294
 5614SOL    HW218284   1.924   3.958  11.820 -0.5601 -0.5708  0.2919
 5615SOL     OW18285   1.150   5.679  11.923  0.1437 -0.4102 -0.5326
 5615SOL    HW118286   1.103   5.654  11.844 -0.3065  1.7715 -1.0173
 5615SOL    HW218287   1.242   5.680  11.897  0.1051 -0.8704 -0.6871
 5616SOL     OW18288   1.484   7.249  11.955 -0.0385  0.4179  0.0429
 5616SOL    HW118289   1.494   7.272  12.048  2.4723 -0.6011  0.1137
 5616SOL    HW218290   1.463   7.156  11.956 -0.4361  0.5025 -0.4196
 5617SOL     OW18291   7.439   6.274  12.440  0.2212 -0.1026  0.5614
 5617SOL    HW118292   7.413   6.183  12.455 -2.4682  0.7903  2.0877
 5617SOL    HW218293   7.427   6.317  12.525  1.8621  1.6043 -0.0062
 5618SOL     OW18294   0.381   5.416  11.654  0.0813 -0.5506 -0.3768
 5618SOL    HW118295   0.419   5.352  11.594  1.0916 -0.5272  0.2270
 5618SOL    HW218296   0.366   5.494  11.599  0.0802 -0.8553 -0.8135
 5619SOL     OW18297   0.493   5.535  11.220 -0.3192  0.6625 -0.1318
 5619SOL    HW118298   0.514   5.502  11.133 -0.8545  0.4035 -0.1628
 5619SOL    HW218299   0.567   5.592  11.242 -1.1368  2.4017 -1.5948
 5620SOL     OW18300   2.396   7.684  10.339 -0.6009  0.2942  0.3095
 5620SOL    HW118301   2.469   7.666  10.280 -0.6731 -0.2793  0.3856
 5620SOL    HW218302   2.368   7.597  10.368 -2.3066  0.3925 -0.9075
 5621SOL     OW18303   0.088   7.283   1.682 -0.0700 -0.6152  0.2324
 5621SOL    HW118304   0.176   7.259   1.711 -0.3299 -1.5164  0.3067
 5621SOL    HW218305   0.065   7.217   1.617  0.0828  0.7613 -1.2765
 5622SOL     OW18306   1.799   5.883  11.778  0.2017 -0.3893 -0.0053
 5622SOL    HW118307   1.737   5.840  11.836 -0.8927  0.3884 -0.5454
 5622SOL    HW218308   1.794   5.976  11.802  0.2403 -0.1502 -0.8621
 5623SOL     OW18309   0.712   5.133  12.060  0.6864 -0.0735 -0.5813
 5623SOL    HW118310   0.763   5.106  12.136 -1.0926  1.6998  1.3945
 5623SOL    HW218311   0.759   5.097  11.985  2.9464 -1.2844  1.2856
 5624SOL     OW18312   2.511   5.405  12.407 -0.3555 -0.1515  0.7920
 5624SOL    HW118313   2.431   5.361  12.381  0.8916 -1.3535 -1.2531
 5624SOL    HW218314   2.558   5.341  12.460 -0.7997  0.6349  2.1930
 5625SOL     OW18315   1.261   6.439  11.747  0.5998  0.1618  0.5674
 5625SOL    HW118316   1.182   6.447  11.800 -0.9716 -0.9995 -1.4717
 5625SOL    HW218317   1.269   6.523  11.702  0.6810  0.3633  0.9540
 5626SOL     OW18318   7.674   0.256  11.053 -0.2071  0.5168 -0.1826
 5626SOL    HW118319   7.717   0.197  10.991  1.5128  0.9401  0.5514
 5626SOL    HW218320   7.666   0.206  11.134  1.3430  1.2618  0.4725
 5627SOL     OW18321   2.426   6.918  10.913  0.0442 -0.1191 -0.6194
 5627SOL    HW118322   2.331   6.920  10.910  0.0285  0.3048 -0.0057
 5627SOL    HW218323   2.449   6.972  10.988  0.8517  1.3936 -1.8957
 5628SOL     OW18324   2.305   6.419   0.420 -0.4618 -0.2257  0.0526
 5628SOL    HW118325   2.377   6.450   0.475  1.4970 -2.3171 -1.1441
 5628SOL    HW218326   2.244   6.378   0.482 -1.2632  2.4710  1.2081
 5629SOL     OW18327   0.439   7.320  11.837 -0.4816 -0.3192  0.2638
 5629SOL    HW118328   0.523   7.301  11.880 -0.2794 -1.0392 -0.4263
 5629SOL    HW218329   0.456   7.308  11.744 -1.3980 -0.6519  0.1250
 5630SOL     OW18330   3.866   5.771   0.674 -0.2401 -0.3020 -0.3999
 5630SOL    HW118331   3.910   5.802   0.753 -0.2238 -3.7337  1.1327
 5630SOL    HW218332   3.777   5.751   0.703 -0.8797  0.3633 -1.8206
 5631SOL     OW18333   0.065   6.475   0.201  0.2726 -0.7809  0.1540
 5631SOL    HW118334   0.089   6.526   0.124  0.6850 -1.1955  0.0052
 5631SOL    HW218335   0.127   6.501   0.269 -0.1713 -0.3197  0.3917
 5632SOL     OW18336   3.865   5.779  11.347 -0.3218 -0.2867  0.6088
 5632SOL    HW118337   3.883   5.685  11.349 -1.1115 -0.4501  2.5796
 5632SOL    HW218338   3.770   5.786  11.352 -0.3570  0.6373 -0.7423
 5633SOL     OW18339   7.935   6.214  11.864 -0.0025  0.1461  0.2051
 5633SOL    HW118340   8.030   6.209  11.853  0.0259  2.5644 -1.4772
 5633SOL    HW218341   7.899   6.187  11.779 -0.7114  0.7755  0.2893
 5634SOL     OW18342   2.176   5.493  12.327 -0.0873 -0.1719 -0.0759
 5634SOL    HW118343   2.196   5.489  12.421  0.9183  2.3056 -0.0977
 5634SOL    HW218344   2.148   5.404  12.304  0.2320 -0.9927  2.4217
 5635SOL     OW18345   7.414   1.435  10.289 -0.3354  0.7131 -0.3948
 5635SOL    HW118346   7.490   1.391  10.251 -1.5906 -2.0688  0.1464
 5635SOL    HW218347   7.378   1.487  10.217  1.1898  0.9310 -1.0481
 5636SOL     OW18348   2.807   4.645  11.369  0.4735 -0.3089  0.5374
 5636SOL    HW118349   2.745   4.716  11.359 -0.1709 -0.6561  1.8931
 5636SOL    HW218350   2.793   4.612  11.457  3.0656  0.0447  1.1764
 5637SOL     OW18351   2.023   4.350   0.266  0.2161 -0.6149  0.4068
 5637SOL    HW118352   1.977   4.364   0.349  1.1203 -0.7617  0.9474
 5637SOL    HW218353   1.963   4.299   0.213 -0.4635 -0.3320  0.8915
 5638SOL     OW18354   1.551   6.352  12.397  0.0296  0.0404 -0.0350
 5638SOL    HW118355   1.502   6.424  12.357  2.4317  1.1207 -1.2542
 5638SOL    HW218356   1.490   6.278  12.397 -1.1736  0.9172 -2.6777
 5639SOL     OW18357   7.283   5.200  11.170  0.1070  0.3939  0.0400
 5639SOL    HW118358   7.199   5.162  11.146  0.6419 -0.8022 -0.0522
 5639SOL    HW218359   7.262   5.280  11.217 -1.0784  0.0987  0.0302
 5640SOL     OW18360   1.843   5.946  11.494 -0.4698 -0.1819  0.1200
 5640SOL    HW118361   1.770   6.008  11.498 -2.1483 -2.0105 -0.3274
 5640SOL    HW218362   1.852   5.915  11.584  0.2516  0.5491  0.3099
 5641SOL     OW18363   1.520   4.569  10.900 -0.1490  0.3747 -0.0116
 5641SOL    HW118364   1.444   4.627  10.905  0.2201  0.8244  0.5811
 5641SOL    HW218365   1.576   4.609  10.833  0.1977  0.8320  0.5383
 5642SOL     OW18366   6.100   5.490  11.189 -0.9722  0.3121 -0.3728
 5642SOL    HW118367   6.055   5.548  11.127 -0.6026  0.7709 -0.2232
 5642SOL    HW218368   6.142   5.550  11.251 -2.2035 -0.1543  0.9702
 5643SOL     OW18369   6.772   6.571  10.785 -0.0830  0.1693 -0.2223
 5643SOL    HW118370   6.813   6.515  10.851 -0.2841 -1.6087 -1.5104
 5643SOL    HW218371   6.845   6.618  10.745 -0.0995  2.4366  2.1912
 5644SOL     OW18372   0.284   5.386   1.166  0.1604 -0.4134 -0.0343
 5644SOL    HW118373   0.202   5.348   1.134 -0.7182  1.2006  0.1910
 5644SOL    HW218374   0.265   5.411   1.257  1.0144 -0.3618  0.1328
 5645SOL     OW18375   0.307   7.775   0.025 -0.1024 -0.9983 -0.6087
 5645SOL    HW118376   0.303   7.834  -0.050  0.3047 -0.0910  0.0598
 5645SOL    HW218377   0.241   7.808   0.086  0.9393 -0.4732  0.2790
 5646SOL     OW18378   1.738   6.990   0.505 -0.3974 -0.1905  0.0946
 5646SOL    HW118379   1.733   7.086   0.495 -0.7876 -0.2002  0.1897
 5646SOL    HW218380   1.791   6.978   0.584  2.1981 -0.1046 -1.4896
 5647SOL     OW18381   0.613   0.383   0.062 -0.3619  0.3966  0.0206
 5647SOL    HW118382   0.639   0.415   0.148 -2.2950  1.3375  0.3038
 5647SOL    HW218383   0.553   0.450   0.028 -0.7079 -0.6078 -1.4754
 5648SOL     OW18384   1.217   0.162   1.252  0.2548  0.5690  0.4018
 5648SOL    HW118385   1.168   0.080   1.254 -0.0437  0.5200 -2.9854
 5648SOL    HW218386   1.308   0.136   1.238  0.1420  0.7795 -0.8052
 5649SOL     OW18387   1.640   7.896   1.435  0.5992 -0.1362 -0.0280
 5649SOL    HW118388   1.637   7.910   1.530  1.5281 -0.0576  0.0043
 5649SOL    HW218389   1.722   7.937   1.408  0.1399  0.1877 -0.9332
 5650SOL     OW18390   0.254   5.567   0.832  0.5634 -0.4089  0.0927
 5650SOL    HW118391   0.162   5.543   0.835  0.5144 -0.2183  0.1321
 5650SOL    HW218392   0.278   5.560   0.739  0.2330  0.5494 -0.0821
 5651SOL     OW18393   0.269   7.693   2.176 -0.0626 -0.2173 -0.0127
 5651SOL    HW118394   0.189   7.696   2.124 -0.3073 -1.8585  0.1983
 5651SOL    HW218395   0.255   7.620   2.237  1.7649 -0.8529 -0.2869
 5652SOL     OW18396   0.317   6.718   4.639 -0.3962  0.3334 -0.2972
 5652SOL    HW118397   0.244   6.683   4.588 -0.1813  1.0649 -1.1202
 5652SOL    HW218398   0.283   6.722   4.729 -0.9511 -0.4671 -0.4579
 5653SOL     OW18399   1.302   7.659   1.755  0.6260 -0.3394 -0.5119
 5653SOL    HW118400   1.356   7.639   1.679  1.5479 -2.9863  0.7279
 5653SOL    HW218401   1.267   7.575   1.783  0.5484  0.4755  2.1341
 5654SOL     OW18402   1.409   7.745   0.524 -0.0758  0.2922 -0.6164
 5654SOL    HW118403   1.494   7.701   0.512 -0.3104 -0.5077  0.4570
 5654SOL    HW218404   1.350   7.700   0.464  0.1502  0.5457 -1.0351
 5655SOL     OW18405   2.281   7.654  12.060  0.2633 -0.6737  0.3238
 5655SOL    HW118406   2.376   7.666  12.060  0.4292 -1.7510 -1.1617
 5655SOL    HW218407   2.246   7.743  12.066  1.4161  0.1425 -2.9025
 5656SOL     OW18408   0.055   5.985   2.073 -0.5027  0.1836  0.2049
 5656SOL    HW118409   0.042   5.991   1.978 -0.7715  0.5137  0.2606
 5656SOL    HW218410   0.087   6.071   2.098  0.1935 -0.1033  0.3233
 5657SOL     OW18411   6.437   7.516  12.083  0.3180 -0.1246 -0.2638
 5657SOL    HW118412   6.345   7.508  12.108  0.2404  1.7486  0.1973
 5657SOL    HW218413   6.439   7.488  11.991 -0.4865 -1.2142  0.0259
 5658SOL     OW18414   1.441   7.925   2.606  0.6394  0.2295 -0.4606
 5658SOL    HW118415   1.355   7.908   2.646 -0.2030  2.2925 -1.2282
 5658SOL    HW218416   1.425   7.921   2.512  1.4787  0.2767 -0.6111
 5659SOL     OW18417   1.391   6.877   3.416  0.0711  0.1470  0.2944
 5659SOL    HW118418   1.425   6.926   3.491  1.6805 -0.4139 -0.0208
 5659SOL    HW218419   1.462   6.818   3.392 -1.1618 -1.0934 -0.4460
 5660SOL     OW18420   6.131   6.645   1.719  0.2183  0.2467 -0.1479
 5660SOL    HW118421   6.190   6.595   1.775  0.8916 -1.9525 -2.5955
 5660SOL    HW218422   6.043   6.621   1.750  0.5556  0.7149  1.2325
 5661SOL     OW18423   0.123   7.748  11.713 -0.3823  0.0939  0.3535
 5661SOL    HW118424   0.056   7.770  11.648 -0.1855 -0.8259 -0.1904
 5661SOL    HW218425   0.100   7.659  11.741  1.3315 -0.7971 -0.8413
 5662SOL     OW18426   1.679   0.038   2.269  0.3098 -0.1102  0.3814
 5662SOL    HW118427   1.594   0.081   2.281  0.3520 -0.0143  0.3433
 5662SOL    HW218428   1.672  -0.006   2.184  0.1615 -0.4286  0.5587
 5663SOL     OW18429   1.209   7.525   0.759  0.0952  0.5779  0.0265
 5663SOL    HW118430   1.227   7.435   0.784  1.6824  1.1629  1.1421
 5663SOL    HW218431   1.133   7.549   0.812 -1.0159 -0.3932 -1.0637
 5664SOL     OW18432   7.540   1.327   2.065  0.4232  0.8875  0.2693
 5664SOL    HW118433   7.481   1.280   2.006 -0.5802  1.5933  0.6935
 5664SOL    HW218434   7.621   1.339   2.013  0.1731  0.0075 -0.3503
 5665SOL     OW18435   0.998   0.368   2.104  0.0300 -0.2824  0.1675
 5665SOL    HW118436   0.993   0.303   2.034  1.4417 -1.3976  1.0440
 5665SOL    HW218437   0.931   0.432   2.081 -0.8829 -1.6174 -1.1589
 5666SOL     OW18438   1.022   7.755   2.273 -0.0739 -0.0540 -0.1580
 5666SOL    HW118439   1.043   7.837   2.229 -0.3342 -0.7114 -1.5496
 5666SOL    HW218440   0.929   7.742   2.256 -0.1161 -0.4664  0.3670
 5667SOL     OW18441   1.320   0.185  12.014  0.5891 -0.0017  0.2453
 5667SOL    HW118442   1.400   0.232  11.989  0.3541 -0.3992 -1.3776
 5667SOL    HW218443   1.347   0.094  12.020  0.1776 -0.2107 -0.8233
 5668SOL     OW18444   1.226   7.719  10.644  0.0067  0.7403 -0.0743
 5668SOL    HW118445   1.229   7.633  10.601 -1.3708  0.0632  1.1109
 5668SOL    HW218446   1.190   7.778  10.578  1.7643  0.6428 -1.1996
 5669SOL     OW18447   7.818   6.896   0.537  0.0764  0.3494 -0.0993
 5669SOL    HW118448   7.865   6.945   0.604  1.2505  1.4098 -1.6305
 5669SOL    HW218449   7.726   6.906   0.560  0.2428  3.3852 -0.3676
 5670SOL     OW18450   0.726   6.529   2.641 -0.5619  0.4195  0.2582
 5670SOL    HW118451   0.778   6.609   2.649 -0.3171  0.3444 -0.4508
 5670SOL    HW218452   0.774   6.465   2.693 -0.2249  0.4892  0.0430
 5671SOL     OW18453   0.736   7.051   2.118  0.1003 -0.7925 -0.0063
 5671SOL    HW118454   0.829   7.073   2.127  0.4230 -1.7852 -0.7725
 5671SOL    HW218455   0.729   7.010   2.032 -1.4862  1.4827 -1.0765
 5672SOL     OW18456   1.215   7.321   1.208  0.0994 -0.5222  0.1633
 5672SOL    HW118457   1.268   7.401   1.202  0.4316 -0.6281  1.3658
 5672SOL    HW218458   1.258   7.270   1.277 -2.2888 -0.0572  2.0976
 5673SOL     OW18459   0.552   7.399  12.226  0.2471 -0.1443 -0.0939
 5673SOL    HW118460   0.614   7.419  12.297  0.1204 -1.8091  0.5173
 5673SOL    HW218461   0.466   7.414  12.265  0.1352 -2.0916  0.4892
 5674SOL     OW18462   0.437   7.885   2.758  0.3653 -0.0037  0.2153
 5674SOL    HW118463   0.371   7.867   2.825  0.2335  0.6730  0.2757
 5674SOL    HW218464   0.388   7.887   2.676  0.3447  0.2683  0.2331
 5675SOL     OW18465   1.182   0.578   2.305  0.4424  0.0137 -0.0398
 5675SOL    HW118466   1.236   0.639   2.355  0.8152 -0.5469  0.2477
 5675SOL    HW218467   1.174   0.619   2.219 -0.7615  1.3128  0.6470
 5676SOL     OW18468   7.684   6.822   1.181 -0.3485  0.2473 -0.2901
 5676SOL    HW118469   7.737   6.901   1.169  0.5701 -0.4083 -0.7050
 5676SOL    HW218470   7.596   6.854   1.201 -0.0796  1.3662 -0.8560
 5677SOL     OW18471   1.123   5.793   0.596  0.5223  0.3912  0.2531
 5677SOL    HW118472   1.112   5.888   0.594 -0.5056  0.3013  0.9386
 5677SOL    HW218473   1.146   5.772   0.686  0.2560 -0.0620  0.2207
 5678SOL     OW18474   1.374   6.379   2.007 -0.1650  0.0639 -0.3964
 5678SOL    HW118475   1.465   6.405   2.023 -0.0594 -0.1876 -0.5884
 5678SOL    HW218476   1.323   6.433   2.068  0.1405 -0.0716 -0.0173
 5679SOL     OW18477   0.601   7.521   1.506 -0.4921 -0.3818 -0.0253
 5679SOL    HW118478   0.519   7.562   1.479  1.0866  2.5729 -0.8205
 5679SOL    HW218479   0.609   7.443   1.451 -1.9418  0.2281 -1.1558
 5680SOL     OW18480   0.706   1.361   2.808 -0.1522  0.2248  0.0366
 5680SOL    HW118481   0.635   1.402   2.857 -0.8191 -1.1769  0.2898
 5680SOL    HW218482   0.692   1.267   2.819  1.3071 -0.0893 -0.5452
 5681SOL     OW18483   0.831   6.600  12.454 -0.1692  0.2293 -0.0029
 5681SOL    HW118484   0.870   6.658  12.519  0.7216  1.0545 -1.2437
 5681SOL    HW218485   0.739   6.625  12.451  0.0372  0.9994  0.0884
 5682SOL     OW18486   2.130   5.936  12.219 -0.3673  0.7063 -0.2228
 5682SOL    HW118487   2.097   5.846  12.224  0.7173  0.2904 -0.2912
 5682SOL    HW218488   2.117   5.972  12.307  4.1514 -1.3427  1.5388
 5683SOL     OW18489   1.816   7.030   2.003 -0.4859 -0.2115 -0.8971
 5683SOL    HW118490   1.774   6.996   2.082 -1.4024 -0.4010 -1.4492
 5683SOL    HW218491   1.766   6.991   1.931  1.5170 -1.6216 -1.6332
 5684SOL     OW18492   0.741   7.525   2.769  0.3428  0.5924 -0.3763
 5684SOL    HW118493   0.746   7.611   2.726 -1.2601  0.3422 -1.1725
 5684SOL    HW218494   0.813   7.475   2.731 -0.4297  0.7047 -2.1104
 5685SOL     OW18495   1.761   0.967   3.454 -0.0632  0.2710 -0.4256
 5685SOL    HW118496   1.674   0.974   3.414  0.2829 -1.9141 -1.6696
 5685SOL    HW218497   1.746   0.920   3.536 -0.1201  0.3958 -0.3638
 5686SOL     OW18498   2.090   6.996   1.207 -0.3711 -0.2239  0.1003
 5686SOL    HW118499   2.142   6.935   1.155  0.4134  0.5546 -0.0722
 5686SOL    HW218500   2.001   6.987   1.174 -0.1669 -0.8809 -0.2902
 5687SOL     OW18501   7.263   7.567  11.635 -0.1182  0.1155  0.0567
 5687SOL    HW118502   7.335   7.537  11.690  1.2401  0.5725 -1.4103
 5687SOL    HW218503   7.230   7.488  11.592  0.8948  0.1672 -0.8431
 5688SOL     OW18504   6.032   3.397   2.701  0.5892  0.0303  0.1301
 5688SOL    HW118505   6.114   3.349   2.714  0.6500  0.2986  0.8169
 5688SOL    HW218506   6.014   3.436   2.787  0.4103  1.0251 -0.3480
 5689SOL     OW18507   0.214   0.739   1.073  0.1738  0.4340  0.4988
 5689SOL    HW118508   0.228   0.671   1.138 -0.2087  1.8898  2.1570
 5689SOL    HW218509   0.125   0.771   1.089  0.2440  1.1637 -0.4258
 5690SOL     OW18510   1.643   0.256   1.162 -0.2098  0.1564  0.0219
 5690SOL    HW118511   1.567   0.198   1.169 -0.8637  1.1919  2.9789
 5690SOL    HW218512   1.634   0.296   1.076 -1.6057 -1.5801 -0.7207
 5691SOL     OW18513   0.874   6.421   1.200  0.1594 -0.1645 -0.5442
 5691SOL    HW118514   0.804   6.483   1.181  1.3031  0.7480 -2.0418
 5691SOL    HW218515   0.949   6.476   1.224  0.2273 -1.1357  1.6783
 5692SOL     OW18516   1.716   7.565  11.297  0.2947  0.2306 -0.4223
 5692SOL    HW118517   1.743   7.590  11.386  0.5272  1.5086 -0.8273
 5692SOL    HW218518   1.645   7.503  11.310  1.2174 -0.6570  0.6661
 5693SOL     OW18519   1.420   0.400  12.455 -0.0443  0.6375  0.1019
 5693SOL    HW118520   1.466   0.369  12.533 -0.7350 -0.4881  0.0785
 5693SOL    HW218521   1.446   0.492  12.447  1.6782  0.2219  0.4641
 5694SOL     OW18522   1.921   6.812   0.986  0.0169 -0.3650  0.1351
 5694SOL    HW118523   1.877   6.749   1.044 -0.6965 -0.7527 -0.8110
 5694SOL    HW218524   2.014   6.793   0.998 -0.2003 -2.6311 -1.1906
 5695SOL     OW18525   7.772   7.636   1.510  0.2514 -0.0845  0.4200
 5695SOL    HW118526   7.814   7.595   1.434 -0.5221 -0.3407  0.1200
 5695SOL    HW218527   7.836   7.628   1.580  1.0055  0.2146 -0.2237
 5696SOL     OW18528   0.522   0.780   2.575 -0.8286  0.3555  0.5649
 5696SOL    HW118529   0.482   0.703   2.535  0.9356 -0.2789 -0.0825
 5696SOL    HW218530   0.542   0.752   2.665  1.0631 -0.4866 -0.0627
 5697SOL     OW18531   2.245   2.165   1.117 -0.3332 -0.2266 -0.3287
 5697SOL    HW118532   2.270   2.113   1.040  0.4621 -1.0417  0.4606
 5697SOL    HW218533   2.164   2.125   1.148 -0.7802  0.2475 -0.8654
 5698SOL     OW18534   1.753   6.367   2.262  0.1895  0.4669 -0.8818
 5698SOL    HW118535   1.806   6.359   2.341 -2.3270  0.0043  0.8574
 5698SOL    HW218536   1.728   6.278   2.240 -0.8592  0.7628 -0.9440
 5699SOL     OW18537   7.124   0.470   0.517  0.6167  0.5115  0.3273
 5699SOL    HW118538   7.059   0.407   0.487 -0.0364  1.0427  0.5956
 5699SOL    HW218539   7.188   0.475   0.446  0.6562 -0.4174  0.2921
 5700SOL     OW18540   7.296   7.336   1.418  0.5353 -0.2172 -0.1426
 5700SOL    HW118541   7.284   7.314   1.326  0.6504 -1.1734  0.0591
 5700SOL    HW218542   7.390   7.350   1.427  0.7265 -1.5223  0.1048
 5701SOL     OW18543   2.137   0.033   2.032  0.7635 -0.0199 -0.6730
 5701SOL    HW118544   2.059   0.031   2.088  0.9450 -0.4032 -0.4292
 5701SOL    HW218545   2.177   0.118   2.050  0.4597  0.1349 -0.7185
 5702SOL     OW18546   2.072   7.445  11.533 -0.2377  0.4749 -0.1092
 5702SOL    HW118547   2.136   7.513  11.553 -0.4474  0.4404  0.6986
 5702SOL    HW218548   2.053   7.456  11.440  1.1223  0.3270 -0.4155
 5703SOL     OW18549   0.695   1.041   1.251  0.2150  0.0439  0.0828
 5703SOL    HW118550   0.640   0.968   1.279 -0.7503  1.5475  2.3418
 5703SOL    HW218551   0.633   1.107   1.220  0.9169  0.8227  0.3124
 5704SOL     OW18552   0.249   7.013   1.996  0.1417 -0.2321  0.1944
 5704SOL    HW118553   0.216   7.095   1.960 -1.1439 -0.8953 -0.1823
 5704SOL    HW218554   0.176   6.952   1.988  0.8336 -1.2175  1.1626
 5705SOL     OW18555   4.500   0.169   1.272 -0.2510  0.3279  0.6455
 5705SOL    HW118556   4.497   0.073   1.267 -1.8137  0.3704  0.3534
 5705SOL    HW218557   4.501   0.198   1.181  0.0739  0.5924  0.7329
 5706SOL     OW18558   0.632   6.911  12.400  0.1295  0.7025  0.0729
 5706SOL    HW118559   0.644   6.837  12.341  0.9344  0.7524  0.1735
 5706SOL    HW218560   0.538   6.910  12.420  0.1419 -0.3041  0.1054
 5707SOL     OW18561   1.078   0.747   0.654 -0.6919  0.1336 -0.4371
 5707SOL    HW118562   0.987   0.766   0.673 -0.7843  0.9511 -1.5946
 5707SOL    HW218563   1.124   0.829   0.670 -0.2660 -0.0850 -0.5242
 5708SOL     OW18564   0.975   7.701   0.548 -0.2570  0.2910  0.4466
 5708SOL    HW118565   0.994   7.716   0.456 -1.5823  0.5414  0.1921
 5708SOL    HW218566   0.977   7.789   0.587 -0.6938  0.2989  0.4522
 5709SOL     OW18567   0.908   6.291   0.911 -0.3073  0.3639  0.2101
 5709SOL    HW118568   0.911   6.385   0.896 -1.0373  0.8538  2.6824
 5709SOL    HW218569   0.989   6.271   0.959  0.1413 -0.4086 -0.8234
 5710SOL     OW18570   1.059   7.655   0.084  0.8634  0.0358  0.1747
 5710SOL    HW118571   0.993   7.677   0.019 -0.0481 -0.7896  0.7965
 5710SOL    HW218572   1.082   7.564   0.066 -0.7082 -0.7993  2.0591
 5711SOL     OW18573   1.899   0.109  12.123  0.0098 -0.0587  0.1677
 5711SOL    HW118574   1.873   0.200  12.128 -0.3385 -0.1575  0.1432
 5711SOL    HW218575   1.947   0.102  12.040  0.5482  0.2291  0.4483
 5712SOL     OW18576   7.537   0.750   3.157  0.7366  0.1343 -0.3729
 5712SOL    HW118577   7.502   0.838   3.143  2.1142  0.7610 -0.0421
 5712SOL    HW218578   7.562   0.748   3.249  0.5330 -0.6863 -0.3226
 5713SOL     OW18579   0.309   1.433   3.423 -0.0523 -0.0933 -0.1570
 5713SOL    HW118580   0.337   1.465   3.509 -1.1124  0.1584  0.1057
 5713SOL    HW218581   0.341   1.498   3.361 -3.0356  2.1220  0.4466
 5714SOL     OW18582   3.172   7.485   3.721 -0.0676 -0.4656 -0.3434
 5714SOL    HW118583   3.098   7.425   3.730 -0.9492  0.6772  0.4115
 5714SOL    HW218584   3.244   7.430   3.690 -0.4864 -2.1550  1.4567
 5715SOL     OW18585   7.667   6.385   3.101 -0.8331  0.6403 -0.0522
 5715SOL    HW118586   7.738   6.445   3.078 -1.3463  0.8720 -1.0720
 5715SOL    HW218587   7.663   6.324   3.027 -1.4101  0.3639  0.2071
 5716SOL     OW18588   0.063   1.422   5.160  0.1403  0.5997  0.6101
 5716SOL    HW118589   0.032   1.490   5.219  0.1079 -0.3805  1.7676
 5716SOL    HW218590   0.157   1.415   5.179  0.4982  1.4414 -0.6935
 5717SOL     OW18591   2.482   5.901   3.555  0.2627 -0.6409  0.4396
 5717SOL    HW118592   2.515   5.826   3.603  1.9253 -0.6901 -0.6724
 5717SOL    HW218593   2.546   5.970   3.573 -0.6010  0.1576  0.5019
 5718SOL     OW18594   1.759   2.072   4.358  0.4559  0.2430 -0.0368
 5718SOL    HW118595   1.786   2.163   4.349  0.1456  0.2428 -1.1244
 5718SOL    HW218596   1.800   2.043   4.439 -0.3817  1.6800  0.9342
 5719SOL     OW18597   1.987   0.291   2.480 -0.1873  0.0082 -0.2111
 5719SOL    HW118598   1.991   0.231   2.554  1.7002 -0.0628 -0.3192
 5719SOL    HW218599   1.896   0.289   2.452 -0.7878 -0.4895  1.6689
 5720SOL     OW18600   7.871   1.263   5.347  0.0101 -0.1996 -0.7191
 5720SOL    HW118601   7.958   1.276   5.384 -0.7254  3.1459  0.2504
 5720SOL    HW218602   7.866   1.326   5.275 -2.0318  0.7819  0.1918
 5721SOL     OW18603   1.671   1.886   2.192 -0.7182  0.2981  0.1226
 5721SOL    HW118604   1.630   1.824   2.252 -2.0741  1.0804  0.0514
 5721SOL    HW218605   1.759   1.900   2.227 -0.6406 -1.0962  0.5387
 5722SOL     OW18606   1.539   0.307   3.184 -0.1277 -0.4487  0.4476
 5722SOL    HW118607   1.531   0.254   3.105  1.5943  0.7972 -0.6480
 5722SOL    HW218608   1.631   0.333   3.185 -1.0354  3.3792  0.2815
 5723SOL     OW18609   7.421   1.796   2.588  0.6836 -0.2749 -0.1507
 5723SOL    HW118610   7.336   1.759   2.612  0.4845  1.3371  1.9551
 5723SOL    HW218611   7.411   1.823   2.496 -0.9514 -0.4936 -0.0663
 5724SOL     OW18612   1.195   0.971   2.219 -0.1884 -0.3694  0.5506
 5724SOL    HW118613   1.198   0.996   2.311 -1.9704 -0.8384  0.7772
 5724SOL    HW218614   1.154   0.885   2.219  0.0864 -0.5214 -0.6690
 5725SOL     OW18615   2.140   7.921   4.648  0.0398 -0.0479 -0.1540
 5725SOL    HW118616   2.098   7.835   4.637 -0.2532  0.1245 -0.4006
 5725SOL    HW218617   2.121   7.945   4.739  0.5399 -0.4606  0.0652
 5726SOL     OW18618   0.131   6.226   2.119 -0.0924 -0.0676 -0.2551
 5726SOL    HW118619   0.112   6.314   2.085  0.1139  0.7094  1.5444
 5726SOL    HW218620   0.176   6.241   2.202  1.4515 -1.8915 -0.6862
 5727SOL     OW18621   0.545   7.109   3.551 -0.2846 -0.0676  0.3609
 5727SOL    HW118622   0.545   7.021   3.513 -3.0427  0.4755 -1.2108
 5727SOL    HW218623   0.601   7.161   3.492  0.9196 -0.6096  0.9933
 5728SOL     OW18624   7.636   5.483   1.784 -0.4025  0.0409 -0.4514
 5728SOL    HW118625   7.599   5.419   1.723 -0.4199 -0.4523  0.0683
 5728SOL    HW218626   7.628   5.566   1.738 -0.4100 -0.3224 -1.1267
 5729SOL     OW18627   0.473   6.493   2.818 -0.5589  0.0631  0.2862
 5729SOL    HW118628   0.507   6.450   2.897  1.2042  1.3134  0.2814
 5729SOL    HW218629   0.514   6.580   2.819 -1.5703  0.6112 -1.3151
 5730SOL     OW18630   0.516   5.881   1.746  0.2189  0.0931  0.4635
 5730SOL    HW118631   0.456   5.947   1.712  1.0119  0.0597 -1.1233
 5730SOL    HW218632   0.601   5.925   1.750  0.4439 -0.3707  0.9271
 5731SOL     OW18633   7.078   0.155   3.035  0.5682 -0.3346 -0.0182
 5731SOL    HW118634   7.115   0.179   2.949  1.4903 -0.0211  0.4535
 5731SOL    HW218635   7.070   0.239   3.081 -0.7652 -0.3951 -0.1121
 5732SOL     OW18636   0.577   0.931   3.787 -0.6247 -0.5756 -0.4649
 5732SOL    HW118637   0.539   1.014   3.815  0.4605  0.0826 -0.8721
 5732SOL    HW218638   0.504   0.869   3.788 -1.5415  0.4781 -0.5446
 5733SOL     OW18639   3.049   6.959   1.749 -0.4375 -0.4366  0.1907
 5733SOL    HW118640   3.137   6.951   1.713  0.1569 -1.5943  1.7828
 5733SOL    HW218641   3.019   7.046   1.723  0.3529 -0.7988 -2.1128
 5734SOL     OW18642   0.812   1.074   3.671  0.2547  0.0776  0.2129
 5734SOL    HW118643   0.752   1.042   3.738  0.1242  0.6668  0.3903
 5734SOL    HW218644   0.765   1.062   3.588 -1.0377  2.4816  0.5087
 5735SOL     OW18645   2.270   0.813   1.772  0.0880  0.4781  0.3563
 5735SOL    HW118646   2.365   0.816   1.783  0.5338  0.9159 -2.6342
 5735SOL    HW218647   2.242   0.903   1.788  0.0977  0.2607  1.6529
 5736SOL     OW18648   6.303   7.736   2.312 -0.2797 -0.0389  0.1645
 5736SOL    HW118649   6.266   7.750   2.224  2.0232 -0.9185 -1.0333
 5736SOL    HW218650   6.337   7.822   2.337 -0.4410  0.0899 -0.0469
 5737SOL     OW18651   0.924   7.643   4.055 -0.0237  0.2632 -0.4157
 5737SOL    HW118652   0.976   7.694   4.118  0.1610 -0.5206  0.0814
 5737SOL    HW218653   0.867   7.707   4.014 -0.0544  0.8211  0.4602
 5738SOL     OW18654   2.564   0.903   3.064 -0.5399 -0.4488  0.2940
 5738SOL    HW118655   2.538   0.971   3.126  0.1478 -0.5165  0.6678
 5738SOL    HW218656   2.524   0.930   2.981  1.1397  1.4186 -0.0175
 5739SOL     OW18657   1.958   0.143   4.300  0.2927 -0.7092  0.3658
 5739SOL    HW118658   1.966   0.064   4.247  1.1046 -0.3209 -0.0958
 5739SOL    HW218659   2.032   0.198   4.274 -0.2737  0.2205  0.6624
 5740SOL     OW18660   2.095   7.147   2.565  0.6044 -0.6032 -0.0884
 5740SOL    HW118661   2.037   7.222   2.553  1.9684  0.1870 -2.3657
 5740SOL    HW218662   2.182   7.184   2.575  1.1772 -1.8556 -0.2015
 5741SOL     OW18663   1.541   7.032   2.605 -0.5272  0.1919 -0.2561
 5741SOL    HW118664   1.583   6.951   2.633  0.9824  0.9152 -0.3460
 5741SOL    HW218665   1.590   7.101   2.650 -2.0823  1.0486  0.1979
 5742SOL     OW18666   1.166   7.901   3.232  0.6449  0.4117  0.7258
 5742SOL    HW118667   1.173   7.995   3.217 -0.6347  0.2096 -1.6108
 5742SOL    HW218668   1.081   7.877   3.195  0.6790 -1.5797  1.8056
 5743SOL     OW18669   1.686   1.620   2.987 -0.0580 -0.4486 -0.0198
 5743SOL    HW118670   1.697   1.632   3.081 -0.7683 -2.1282  0.3114
 5743SOL    HW218671   1.592   1.630   2.973  0.0101 -0.4728 -0.5104
 5744SOL     OW18672   1.614   6.361   3.707  0.1393 -0.6655  0.0579
 5744SOL    HW118673   1.566   6.409   3.775  0.9512  0.0563  0.1310
 5744SOL    HW218674   1.551   6.354   3.635 -0.3929 -0.5525  0.4989
 5745SOL     OW18675   1.817   7.586   5.088 -0.1765 -0.3131  0.0547
 5745SOL    HW118676   1.803   7.678   5.066 -0.4097 -0.4499 -0.4011
 5745SOL    HW218677   1.729   7.549   5.091 -0.1912 -0.2005  1.7650
 5746SOL     OW18678   0.151   0.891   5.202 -0.7157 -0.5033 -0.4276
 5746SOL    HW118679   0.122   0.883   5.111 -0.9085 -2.0668 -0.2552
 5746SOL    HW218680   0.108   0.818   5.247 -0.3960  0.0828  0.8687
 5747SOL     OW18681   1.514   7.299   1.853 -0.1214 -0.3192  0.4510
 5747SOL    HW118682   1.514   7.262   1.941  0.2341 -0.5530  0.3529
 5747SOL    HW218683   1.597   7.347   1.847 -0.6575  0.6776  0.6506
 5748SOL     OW18684   1.236   7.187   1.895  0.2592 -0.0740 -0.4653
 5748SOL    HW118685   1.242   7.115   1.958  0.5413  0.1450 -0.2407
 5748SOL    HW218686   1.316   7.238   1.909 -0.7754  1.3152  0.6353
 5749SOL     OW18687   1.046   0.148   3.723  0.1590  0.1875  0.3509
 5749SOL    HW118688   1.120   0.092   3.699 -0.4598 -0.9949  1.1469
 5749SOL    HW218689   1.070   0.184   3.808  0.6997  1.4525 -0.2937
 5750SOL     OW18690   2.034   1.155   2.553  0.4116 -0.5059 -0.3087
 5750SOL    HW118691   2.098   1.103   2.601  1.4730 -0.3496 -1.5162
 5750SOL    HW218692   2.084   1.197   2.483 -1.1039 -0.7862 -1.6146
 5751SOL     OW18693   0.705   0.392   3.846  0.2364  0.9136 -0.6667
 5751SOL    HW118694   0.695   0.440   3.763  0.1560  2.2430  0.0833
 5751SOL    HW218695   0.696   0.300   3.822  1.1555  1.2093 -2.2822
 5752SOL     OW18696   1.539   7.283   3.698 -0.5167 -0.1841 -0.0002
 5752SOL    HW118697   1.539   7.348   3.627  3.1140 -0.9228 -0.9178
 5752SOL    HW218698   1.582   7.327   3.771 -1.9122 -0.2516  0.8824
 5753SOL     OW18699   2.610   7.373   5.237 -0.0996 -0.5640  0.2811
 5753SOL    HW118700   2.529   7.412   5.203  0.6027  0.2085 -0.5700
 5753SOL    HW218701   2.644   7.321   5.164  1.1115  0.6144 -0.0498
 5754SOL     OW18702   0.230   0.101   1.875  0.0212 -0.4646  0.5276
 5754SOL    HW118703   0.243   0.047   1.953 -0.9352  1.3023  1.9838
 5754SOL    HW218704   0.140   0.132   1.882  0.6323  1.5984 -0.0487
 5755SOL     OW18705   1.288   0.749   3.053 -0.6197  0.3212 -0.1565
 5755SOL    HW118706   1.339   0.668   3.051 -2.2386 -0.8612  1.6970
 5755SOL    HW218707   1.346   0.815   3.016  1.1629 -1.4648 -0.7545
 5756SOL     OW18708   1.430   0.430   2.160 -0.2058 -0.3601 -0.2171
 5756SOL    HW118709   1.498   0.441   2.093 -1.0217  0.9306 -0.8786
 5756SOL    HW218710   1.413   0.519   2.191 -1.1205 -0.7368  0.4046
 5757SOL     OW18711   2.337   1.455   2.926  0.0014 -0.0975  0.8743
 5757SOL    HW118712   2.427   1.484   2.941  0.6327 -2.3868  1.9501
 5757SOL    HW218713   2.307   1.423   3.011 -1.2107 -0.9710  0.1542
 5758SOL     OW18714   2.069   7.157   2.202  0.1188 -0.0675  0.7582
 5758SOL    HW118715   2.021   7.076   2.221 -0.8031  0.5808  1.2475
 5758SOL    HW218716   2.010   7.227   2.229  0.8589  0.7813  0.2290
 5759SOL     OW18717   3.254   7.844   2.647 -0.0465 -0.4304 -0.4837
 5759SOL    HW118718   3.312   7.822   2.574  0.5298  0.2379 -0.2439
 5759SOL    HW218719   3.295   7.802   2.723 -1.3083 -2.1714 -0.7149
 5760SOL     OW18720   2.806   6.533   3.453 -0.0969 -0.0042 -0.0257
 5760SOL    HW118721   2.843   6.597   3.513 -1.4592  0.2036  0.6315
 5760SOL    HW218722   2.881   6.480   3.424  0.5416 -0.3977  2.1823
 5761SOL     OW18723   0.488   0.329   4.014 -0.0531 -0.2884  0.3836
 5761SOL    HW118724   0.572   0.316   3.969  0.7343  0.6233  1.5259
 5761SOL    HW218725   0.429   0.267   3.972  1.4372 -1.6442  0.1707
 5762SOL     OW18726   0.979   7.514   3.094  0.5292 -0.9233 -0.1096
 5762SOL    HW118727   1.056   7.487   3.043  1.6878  0.3846  0.8520
 5762SOL    HW218728   1.004   7.599   3.132 -1.3684 -0.5119  0.3226
 5763SOL     OW18729   0.265   1.684   4.912  0.2765  0.4299  0.0438
 5763SOL    HW118730   0.236   1.743   4.843 -0.3370 -0.4436 -0.4641
 5763SOL    HW218731   0.184   1.652   4.952  0.3146 -2.9973 -2.1766
 5764SOL     OW18732   1.387   7.587   4.396 -0.3130 -0.5213 -0.6264
 5764SOL    HW118733   1.294   7.582   4.414 -0.3620  0.3301 -0.6066
 5764SOL    HW218734   1.393   7.608   4.303 -0.1387 -0.5859 -0.6311
 5765SOL     OW18735   0.775   7.190   2.746 -0.8804 -0.0585 -0.0735
 5765SOL    HW118736   0.772   7.227   2.657 -0.7467 -0.5021 -0.2648
 5765SOL    HW218737   0.859   7.143   2.750 -0.9916 -0.2350  0.2103
 5766SOL     OW18738   6.824   6.927   1.843 -0.1481 -0.4872  0.5296
 5766SOL    HW118739   6.766   6.969   1.778  2.0736 -0.0953 -1.3396
 5766SOL    HW218740   6.883   6.997   1.870  1.5124 -1.6069 -0.1019
 5767SOL     OW18741   0.016   2.124   4.273 -0.1933  0.2121  0.1019
 5767SOL    HW118742   0.009   2.212   4.236 -0.1485  0.3746  0.4712
 5767SOL    HW218743   0.110   2.113   4.289 -0.3024  0.4987  0.9995
 5768SOL     OW18744   1.302   0.404   2.831  0.5865  0.1640 -0.1346
 5768SOL    HW118745   1.358   0.440   2.899  1.0205  0.8488 -0.8289
 5768SOL    HW218746   1.363   0.357   2.773 -0.0635 -2.6785  1.2959
 5769SOL     OW18747   1.518   0.165   2.939 -0.1105 -0.0510 -0.0710
 5769SOL    HW118748   1.487   0.217   2.865  0.3256  1.0962  0.5211
 5769SOL    HW218749   1.607   0.140   2.914  0.7860  1.9918  0.8196
 5770SOL     OW18750   0.717   7.805   3.661  0.0208 -0.0830  0.2446
 5770SOL    HW118751   0.683   7.806   3.572  2.5844  0.2609 -0.8272
 5770SOL    HW218752   0.798   7.855   3.656  0.2629 -0.0857  2.7844
 5771SOL     OW18753   3.072   6.423   2.942 -0.2996 -0.5475 -0.1363
 5771SOL    HW118754   3.090   6.470   3.024 -0.8838 -1.9356  0.8307
 5771SOL    HW218755   2.981   6.394   2.951 -0.0884 -1.4879 -0.8692
 5772SOL     OW18756   0.440   6.246   1.329 -0.2945  0.2741 -0.0498
 5772SOL    HW118757   0.414   6.283   1.244 -0.9156  1.0500  0.4698
 5772SOL    HW218758   0.522   6.199   1.310 -1.5067 -1.3799 -1.5166
 5773SOL     OW18759   4.254   6.589   3.444  0.7186 -0.3264 -0.3197
 5773SOL    HW118760   4.188   6.658   3.429  1.0333 -0.2474 -1.4391
 5773SOL    HW218761   4.225   6.546   3.524 -1.9393 -1.6510 -1.8318
 5774SOL     OW18762   0.531   6.823   3.501  0.5179 -0.1129  0.2301
 5774SOL    HW118763   0.532   6.772   3.582  1.9466  1.4215  1.2537
 5774SOL    HW218764   0.446   6.803   3.461  0.5440 -2.3165  1.1515
 5775SOL     OW18765   0.482   6.871   2.060  0.1434  0.0839 -0.2529
 5775SOL    HW118766   0.547   6.933   2.028 -1.0216  1.4383 -0.1240
 5775SOL    HW218767   0.398   6.914   2.044 -0.5902 -0.0690  2.6407
 5776SOL     OW18768   0.319   1.785   2.685  0.1528  0.0796  0.3431
 5776SOL    HW118769   0.236   1.824   2.659  1.2450  2.3171 -0.1248
 5776SOL    HW218770   0.309   1.765   2.778 -0.4667  1.7215  0.6671
 5777SOL     OW18771   1.893   6.904   3.676 -0.3649  0.4980 -0.2160
 5777SOL    HW118772   1.930   6.846   3.610 -1.1370  1.2920 -1.3971
 5777SOL    HW218773   1.908   6.992   3.642 -2.1876  0.8822 -0.1439
 5778SOL     OW18774   0.900   7.803   4.852 -0.1868 -0.8806 -0.5716
 5778SOL    HW118775   0.845   7.771   4.923 -1.2536 -0.9101 -1.3928
 5778SOL    HW218776   0.879   7.896   4.845  1.4855 -0.3687  0.5312
 5779SOL     OW18777   1.760   7.897   4.759  0.1578 -0.8946  0.7773
 5779SOL    HW118778   1.795   7.931   4.676  1.2730  0.8287  1.8846
 5779SOL    HW218779   1.750   7.803   4.744  1.3880 -0.8058 -0.9393
 5780SOL     OW18780   2.189   1.250   3.571  0.3194 -0.6034  0.4255
 5780SOL    HW118781   2.201   1.192   3.496  0.0826 -0.7856  0.5284
 5780SOL    HW218782   2.102   1.230   3.604  0.1845 -0.0967  0.3846
 5781SOL     OW18783   7.996   1.212   4.941  0.1579 -0.1574  0.4469
 5781SOL    HW118784   7.930   1.221   4.872  1.4030 -1.3532 -0.9810
 5781SOL    HW218785   7.969   1.273   5.009 -0.6715  1.7259 -1.4653
 5782SOL     OW18786   3.367   0.649   5.478 -0.0061 -0.0210 -0.3862
 5782SOL    HW118787   3.334   0.684   5.560  0.1905 -1.3402  0.2974
 5782SOL    HW218788   3.421   0.719   5.441  0.3502  0.4042  0.8947
 5783SOL     OW18789   1.669   5.272   5.724 -0.0772  0.1256  0.0093
 5783SOL    HW118790   1.701   5.182   5.718  1.7838  0.7356  0.1514
 5783SOL    HW218791   1.738   5.325   5.685 -1.1283  1.5053 -0.0546
 5784SOL     OW18792   0.521   7.822   4.875 -0.2650  0.2384 -0.3315
 5784SOL    HW118793   0.553   7.744   4.829  1.4266 -0.2096  1.4571
 5784SOL    HW218794   0.556   7.896   4.824 -0.7288 -0.1627 -1.2617
 5785SOL     OW18795   1.523   7.985   4.847  0.0557  0.2806  0.0686
 5785SOL    HW118796   1.501   8.051   4.781 -0.8535  0.6324  0.7095
 5785SOL    HW218797   1.599   7.939   4.810  0.4249  1.3845 -0.5799
 5786SOL     OW18798   0.780   0.387   6.456 -1.2389 -0.2281 -0.1162
 5786SOL    HW118799   0.739   0.302   6.441  1.2085 -1.4135 -0.6703
 5786SOL    HW218800   0.818   0.411   6.372 -0.0744  0.3422  0.5371
 5787SOL     OW18801   1.530   7.785   4.200 -0.2686 -0.1592  0.0472
 5787SOL    HW118802   1.466   7.852   4.178 -0.9894 -1.1430 -1.0340
 5787SOL    HW218803   1.569   7.814   4.282 -0.5353  1.5707 -0.4011
 5788SOL     OW18804   0.450   7.730   5.186 -0.2383  0.3602  0.1093
 5788SOL    HW118805   0.475   7.641   5.161  0.2561  0.5393 -0.0435
 5788SOL    HW218806   0.424   7.772   5.104 -0.2429  0.4294  0.1458
 5789SOL     OW18807   2.712   7.791   5.021  0.2773  0.2683 -0.2516
 5789SOL    HW118808   2.689   7.709   4.976  4.1956  0.2729 -2.7982
 5789SOL    HW218809   2.628   7.832   5.040 -1.8202 -3.2876 -0.8658
 5790SOL     OW18810   0.681   0.599   5.726 -0.1886  0.1096  0.1899
 5790SOL    HW118811   0.728   0.536   5.781 -0.2078 -0.5915 -0.5817
 5790SOL    HW218812   0.747   0.663   5.700  0.1587 -0.4058 -0.2050
 5791SOL     OW18813   1.684   0.240   4.959 -0.0735  0.1752 -0.2222
 5791SOL    HW118814   1.767   0.265   4.917  0.1103 -2.2660 -1.5115
 5791SOL    HW218815   1.664   0.313   5.018  2.4763  1.2921 -0.5899
 5792SOL     OW18816   1.742   0.731   6.671 -0.3233  0.3241 -0.1883
 5792SOL    HW118817   1.667   0.678   6.646 -0.8447  1.2176 -0.5772
 5792SOL    HW218818   1.802   0.724   6.597 -0.8525  1.1007 -0.7104
 5793SOL     OW18819   0.828   7.059   4.746  0.4813 -0.0570 -0.0706
 5793SOL    HW118820   0.884   7.116   4.693  0.5791  0.2320  0.3424
 5793SOL    HW218821   0.798   7.114   4.818 -3.1224  0.9145 -2.0282
 5794SOL     OW18822   1.124   0.690   6.210 -0.7072 -0.2264  0.6717
 5794SOL    HW118823   1.160   0.736   6.134 -0.8445 -0.3206  0.5486
 5794SOL    HW218824   1.188   0.622   6.230 -1.2777 -1.0370 -0.1617
 5795SOL     OW18825   1.312   5.782   3.639  0.0591  0.0011  0.2964
 5795SOL    HW118826   1.239   5.832   3.676 -1.1029 -0.5902 -1.0983
 5795SOL    HW218827   1.275   5.697   3.616  1.0284 -0.1198 -0.9744
 5796SOL     OW18828   0.425   7.200   6.540 -0.1519 -0.1937  0.0975
 5796SOL    HW118829   0.487   7.272   6.547  0.8238 -1.0268  0.3610
 5796SOL    HW218830   0.372   7.205   6.620  3.0149 -2.5068  2.6152
 5797SOL     OW18831   2.146   0.353   3.548  0.5134  0.0813  0.3999
 5797SOL    HW118832   2.223   0.331   3.495  1.7119  1.5285  1.4431
 5797SOL    HW218833   2.167   0.323   3.636 -1.4919 -2.3591  0.1643
 5798SOL     OW18834   7.247   1.217   6.924  0.1229 -0.5826 -0.0948
 5798SOL    HW118835   7.236   1.199   7.018  1.1466 -1.1203 -0.0697
 5798SOL    HW218836   7.336   1.251   6.916  0.1747 -0.8944 -0.9289
 5799SOL     OW18837   3.066   1.674   7.140 -0.0157 -0.1277 -0.0113
 5799SOL    HW118838   3.037   1.764   7.126  0.9023  0.1953  0.0869
 5799SOL    HW218839   3.061   1.634   7.053  0.8395  0.4106 -0.3216
 5800SOL     OW18840   2.191   1.189   5.308 -0.3399 -0.3319 -0.3078
 5800SOL    HW118841   2.123   1.255   5.297 -0.9611 -0.7412  0.9265
 5800SOL    HW218842   2.170   1.122   5.243 -0.1005  0.3471 -1.1004
 5801SOL     OW18843   0.230   5.916   2.834  0.0653  0.7202 -0.4686
 5801SOL    HW118844   0.144   5.927   2.793  0.0596  1.1636 -0.3493
 5801SOL    HW218845   0.267   6.005   2.835 -0.4954  0.9881  1.6980
 5802SOL     OW18846   3.322   7.582   3.198 -0.6273  0.6491  0.0450
 5802SOL    HW118847   3.358   7.555   3.283 -0.7149 -1.6276 -0.5780
 5802SOL    HW218848   3.295   7.673   3.212  0.9818  0.9230  1.9194
 5803SOL     OW18849   1.377   2.922   7.052 -0.5806 -0.4338  0.3639
 5803SOL    HW118850   1.352   2.842   7.007 -0.1917 -1.3596  1.7337
 5803SOL    HW218851   1.461   2.901   7.093 -0.0098  0.9898 -0.0234
 5804SOL     OW18852   1.546   6.990   5.044 -0.5732 -0.5699  0.1188
 5804SOL    HW118853   1.474   6.933   5.072 -0.7203 -0.8940 -0.8591
 5804SOL    HW218854   1.625   6.941   5.066 -0.6994 -1.1411 -0.6538
 5805SOL     OW18855   1.364   7.369   3.321  0.3703 -0.1113 -0.1238
 5805SOL    HW118856   1.417   7.438   3.281 -1.4471  0.3301 -1.9497
 5805SOL    HW218857   1.321   7.413   3.395 -0.9751  0.8661 -1.4233
 5806SOL     OW18858   1.540   6.866   3.908 -0.0371  0.7724 -0.4334
 5806SOL    HW118859   1.540   6.878   4.003  1.5889  1.6989 -0.5207
 5806SOL    HW218860   1.465   6.808   3.892 -0.5686  0.8863  1.3583
 5807SOL     OW18861   7.167   0.010   4.849 -0.1614  0.2705  0.2511
 5807SOL    HW118862   7.119  -0.064   4.885 -0.7505  0.6279  0.2196
 5807SOL    HW218863   7.102   0.057   4.796  0.5693 -0.0034 -0.9267
 5808SOL     OW18864   1.196   7.839   6.563  0.4895  0.0865  0.2070
 5808SOL    HW118865   1.113   7.792   6.560 -0.1311  1.1898 -0.3227
 5808SOL    HW218866   1.211   7.870   6.474 -0.2320  2.7124  0.8935
 5809SOL     OW18867   1.069   1.119   5.155  0.1359 -0.0676  0.3092
 5809SOL    HW118868   1.044   1.077   5.073  1.7502  1.1387 -0.8602
 5809SOL    HW218869   1.041   1.210   5.145 -0.4097 -0.0877  1.4683
 5810SOL     OW18870   7.763   0.836   5.500  1.0192  0.2243 -0.5989
 5810SOL    HW118871   7.755   0.884   5.583  1.8495  0.0552 -0.4136
 5810SOL    HW218872   7.742   0.902   5.433  0.4548  0.3913 -0.2698
 5811SOL     OW18873   0.921   0.808   6.520 -0.0450 -0.4024  0.1983
 5811SOL    HW118874   1.011   0.840   6.527  0.3633 -0.8710 -2.0893
 5811SOL    HW218875   0.924   0.718   6.552  0.0628 -0.1167  1.0246
 5812SOL     OW18876   0.726   7.953   5.081  0.1967 -0.4563  0.2847
 5812SOL    HW118877   0.667   8.004   5.136  0.8579 -1.5479  2.1014
 5812SOL    HW218878   0.669   7.888   5.038 -0.1199 -0.5960  0.9110
 5813SOL     OW18879   0.475   6.427   4.524 -1.1708 -1.2013  0.2930
 5813SOL    HW118880   0.490   6.370   4.448 -0.5311 -0.4900 -0.1340
 5813SOL    HW218881   0.386   6.459   4.513 -0.4997  0.3277 -1.1763
 5814SOL     OW18882   2.535   0.020   5.854  0.2198  0.3585 -0.4031
 5814SOL    HW118883   2.578   0.007   5.769  0.4567 -2.8399  0.0937
 5814SOL    HW218884   2.564   0.107   5.882  1.0399  1.0426 -3.0508
 5815SOL     OW18885   0.732   5.265   4.090 -0.6750 -0.7292  0.0529
 5815SOL    HW118886   0.792   5.339   4.085 -1.6229  0.0921  0.4264
 5815SOL    HW218887   0.657   5.291   4.037 -0.9398 -1.5164  0.0188
 5816SOL     OW18888   3.342   7.274   5.247 -0.4517  0.1050 -0.2077
 5816SOL    HW118889   3.290   7.345   5.284 -1.7758 -2.5193  3.5333
 5816SOL    HW218890   3.432   7.294   5.272 -1.1076 -0.6720  3.3228
 5817SOL     OW18891   2.841   6.882   4.025  0.3163 -0.0394  0.3411
 5817SOL    HW118892   2.848   6.843   4.113 -1.9732 -0.0032  0.5898
 5817SOL    HW218893   2.915   6.845   3.977  0.7832 -1.1967  1.8604
 5818SOL     OW18894   2.896   1.783   2.502  0.5448  0.4169 -0.4757
 5818SOL    HW118895   2.886   1.736   2.419  1.0479 -1.9734  0.7417
 5818SOL    HW218896   2.983   1.824   2.495  0.9420 -0.4625 -0.8052
 5819SOL     OW18897   7.518   1.500   4.552 -0.0868 -0.0606 -0.3412
 5819SOL    HW118898   7.587   1.480   4.616 -0.4280  0.7409  0.2991
 5819SOL    HW218899   7.549   1.461   4.471  1.3045  0.5834 -0.1620
 5820SOL     OW18900   1.917   7.318   6.704 -0.1952  0.2376  0.5203
 5820SOL    HW118901   1.904   7.412   6.713 -2.4924 -0.0332  0.8365
 5820SOL    HW218902   1.861   7.293   6.629  0.6343 -0.8291  0.2245
 5821SOL     OW18903   0.195   7.175   5.362  0.3182  0.1957 -0.2126
 5821SOL    HW118904   0.190   7.083   5.387  0.7173  0.2702  0.1612
 5821SOL    HW218905   0.261   7.212   5.421  0.9681  0.4822 -1.0939
 5822SOL     OW18906   0.366   0.972   4.879 -0.5744  0.1606 -0.1410
 5822SOL    HW118907   0.334   1.054   4.916 -0.1646  0.4058 -0.3224
 5822SOL    HW218908   0.384   0.917   4.954  0.7088  0.8250  0.0596
 5823SOL     OW18909   1.395   0.790   5.904  0.0374  0.2374 -0.1764
 5823SOL    HW118910   1.329   0.751   5.846  0.5746 -0.4831 -0.3217
 5823SOL    HW218911   1.475   0.789   5.852  0.7522 -1.3019  0.8692
 5824SOL     OW18912   2.505   1.046   3.642 -0.1636 -0.0854  0.2376
 5824SOL    HW118913   2.536   1.094   3.565 -2.1489 -0.9341 -1.2126
 5824SOL    HW218914   2.438   1.103   3.680 -1.7360 -1.1075 -0.8450
 5825SOL     OW18915   3.216   5.424   6.007  0.2996  0.0403 -0.0654
 5825SOL    HW118916   3.233   5.455   6.096  0.1735 -3.9446  1.5737
 5825SOL    HW218917   3.297   5.378   5.982  0.0599  0.4643 -1.7364
 5826SOL     OW18918   1.902   6.590   4.481 -0.5716  0.3107  0.6544
 5826SOL    HW118919   1.875   6.514   4.533 -0.9280  0.3687  0.5593
 5826SOL    HW218920   1.820   6.622   4.442 -0.7388  1.8282  2.1186
 5827SOL     OW18921   1.159   6.768   4.838 -0.1412  0.2937 -0.7710
 5827SOL    HW118922   1.102   6.712   4.891  1.2528  0.2407  0.7376
 5827SOL    HW218923   1.146   6.736   4.748 -0.5755 -1.4047 -0.1488
 5828SOL     OW18924   1.367   7.295   4.417 -0.1757  0.0216  0.1430
 5828SOL    HW118925   1.328   7.349   4.486  0.7035  1.8223 -0.6882
 5828SOL    HW218926   1.293   7.275   4.359 -0.7564 -0.7913  1.1461
 5829SOL     OW18927   6.916   7.107   3.289 -0.6676 -0.3238 -0.7404
 5829SOL    HW118928   6.957   7.191   3.308 -0.8611 -0.3196 -0.3265
 5829SOL    HW218929   6.831   7.112   3.332 -0.6171 -0.7913 -0.5813
 5830SOL     OW18930   1.293   7.868   6.288 -0.4392 -0.1701  0.1077
 5830SOL    HW118931   1.220   7.847   6.229 -0.1134  0.0167 -0.3728
 5830SOL    HW218932   1.371   7.843   6.238 -0.1856 -0.7695  0.7858
 5831SOL     OW18933   2.227   7.258   6.473  0.3154  0.2496  0.0635
 5831SOL    HW118934   2.161   7.193   6.497 -1.3344  1.5758 -0.6592
 5831SOL    HW218935   2.235   7.314   6.550  1.0663 -0.2291  0.3543
 5832SOL     OW18936   1.521   0.651   6.329 -0.6507 -0.3241 -0.3084
 5832SOL    HW118937   1.491   0.662   6.420  0.3916  1.2223 -0.1108
 5832SOL    HW218938   1.466   0.581   6.295 -3.5327  1.3558  0.4488
 5833SOL     OW18939   1.109   7.045   3.053  0.0866 -0.2742 -0.0674
 5833SOL    HW118940   1.157   7.046   3.135 -0.4538 -1.0178  0.2719
 5833SOL    HW218941   1.051   7.121   3.057  0.8093  0.2908 -0.2257
 5834SOL     OW18942   0.241   1.230   3.247  0.4843  0.6869 -0.1292
 5834SOL    HW118943   0.153   1.266   3.232 -0.4625 -0.9388  1.0833
 5834SOL    HW218944   0.281   1.288   3.312 -0.0431  0.9710 -0.0560
 5835SOL     OW18945   1.865   7.906   6.888  0.2133  0.6818  0.3378
 5835SOL    HW118946   1.812   7.828   6.904  0.8795 -0.2671 -1.7710
 5835SOL    HW218947   1.817   7.977   6.931 -1.5209 -0.5337  0.4977
 5836SOL     OW18948   2.223   7.606   3.409  0.0050 -0.8537 -0.2342
 5836SOL    HW118949   2.170   7.526   3.401 -0.3350 -0.6245 -0.3341
 5836SOL    HW218950   2.299   7.590   3.354  0.4452 -1.5095  0.5550
 5837SOL     OW18951   1.581   7.799   5.464 -0.2093 -0.4340  0.0801
 5837SOL    HW118952   1.492   7.782   5.435 -0.2716 -0.5953  0.3652
 5837SOL    HW218953   1.607   7.878   5.416 -0.5446 -0.3190  0.0872
 5838SOL     OW18954   0.164   6.826   6.060  0.2156 -0.1732  0.7452
 5838SOL    HW118955   0.129   6.896   6.114  0.0864  0.6091 -0.3157
 5838SOL    HW218956   0.093   6.804   6.000  1.5463  1.8062 -1.7974
 5839SOL     OW18957   1.995   0.584   3.956 -0.5700 -0.4109  0.3347
 5839SOL    HW118958   2.003   0.640   3.878  1.5890 -1.2124 -0.0802
 5839SOL    HW218959   1.946   0.508   3.925 -0.4768 -0.3334 -0.0131
 5840SOL     OW18960   0.410   0.822   4.428  0.2578  0.1826  0.2053
 5840SOL    HW118961   0.350   0.779   4.367 -0.9549 -0.8743  2.0649
 5840SOL    HW218962   0.387   0.915   4.424 -1.4076 -0.1821  0.7307
 5841SOL     OW18963   1.495   6.606   5.116  0.3002 -0.1025  0.5438
 5841SOL    HW118964   1.559   6.672   5.144 -1.1043  2.4307 -1.7138
 5841SOL    HW218965   1.545   6.547   5.060  0.9047  1.3473 -0.5219
 5842SOL     OW18966   2.304   7.901   6.905  0.0249 -0.0796 -0.6157
 5842SOL    HW118967   2.233   7.865   6.958  0.5675 -0.0871  0.1272
 5842SOL    HW218968   2.351   7.959   6.964 -1.1833  2.3980 -1.9603
 5843SOL     OW18969   2.612   7.025   3.982 -0.0723 -0.1336  0.4424
 5843SOL    HW118970   2.679   6.957   3.987  0.2080  0.1345  0.3701
 5843SOL    HW218971   2.613   7.066   4.069 -0.3459 -0.3202  0.5347
 5844SOL     OW18972   0.558   7.094   5.549 -0.0637  0.0663 -0.1459
 5844SOL    HW118973   0.593   7.122   5.465  0.1385 -1.4975 -0.5948
 5844SOL    HW218974   0.634   7.062   5.598 -0.3031  0.2287  0.3440
 5845SOL     OW18975   1.556   7.190   6.167 -0.8413 -0.1577 -0.0545
 5845SOL    HW118976   1.614   7.264   6.150  0.9847 -1.5184 -0.0382
 5845SOL    HW218977   1.514   7.211   6.251  0.2994  0.4841  0.3805
 5846SOL     OW18978   0.741   7.141   6.751  0.0760 -0.2385 -1.0544
 5846SOL    HW118979   0.714   7.084   6.823 -1.5314 -0.2778 -1.6583
 5846SOL    HW218980   0.837   7.138   6.754  0.2412  1.9002  2.7897
 5847SOL     OW18981   1.395   5.850   5.037 -0.2583 -0.6391  0.2695
 5847SOL    HW118982   1.390   5.904   4.958  2.3416  0.5488  0.8268
 5847SOL    HW218983   1.459   5.783   5.017 -0.2129 -0.8544  1.0908
 5848SOL     OW18984   1.920   6.483   5.161 -0.9216 -0.0533  0.0994
 5848SOL    HW118985   1.910   6.567   5.204 -0.3073 -0.5806  1.3477
 5848SOL    HW218986   1.982   6.435   5.216 -1.6308 -1.5026 -0.2966
 5849SOL     OW18987   0.397   7.000   6.892  0.0882 -0.3368 -0.3750
 5849SOL    HW118988   0.372   6.909   6.876 -0.7322 -0.2232  0.2031
 5849SOL    HW218989   0.492   6.997   6.904 -0.1007 -1.3512  1.1344
 5850SOL     OW18990   2.064   0.940   7.163  0.0587  0.3564  0.5663
 5850SOL    HW118991   2.100   1.017   7.120  1.6909 -0.2250  0.8393
 5850SOL    HW218992   2.046   0.879   7.091 -0.1339  0.5500  0.4505
 5851SOL     OW18993   0.882   1.187   5.601 -0.3346 -0.4161  0.3621
 5851SOL    HW118994   0.977   1.188   5.585 -0.6255  0.7814 -1.6845
 5851SOL    HW218995   0.851   1.109   5.556 -0.5061  0.1179 -0.4698
 5852SOL     OW18996   6.200   7.534   7.284 -0.1172 -0.2428 -0.1245
 5852SOL    HW118997   6.197   7.476   7.207 -0.9603 -1.5166  0.8278
 5852SOL    HW218998   6.160   7.482   7.354  1.1359  0.6702  1.3195
 5853SOL     OW18999   7.702   4.986   6.973 -0.0766 -0.3020  0.0124
 5853SOL    HW119000   7.759   5.029   7.037 -0.7437  0.4258  0.1317
 5853SOL    HW219001   7.710   5.040   6.894 -0.3028 -0.4240 -0.0941
 5854SOL     OW19002   2.415   7.747   8.296  0.2320 -0.8503  0.1515
 5854SOL    HW119003   2.507   7.740   8.270 -0.2042 -1.2181 -1.3914
 5854SOL    HW219004   2.376   7.806   8.231 -0.3807  0.3276  1.5276
 5855SOL     OW19005   7.389   7.919   8.695  0.1046  0.3067 -0.2904
 5855SOL    HW119006   7.406   7.866   8.774 -0.7292  0.3350 -0.0806
 5855SOL    HW219007   7.475   7.937   8.659  0.4639 -0.2278  0.2831
 5856SOL     OW19008   1.716   1.157   6.992 -0.5954  1.2225  0.4857
 5856SOL    HW119009   1.731   1.065   6.970  2.5403  1.8373 -0.3170
 5856SOL    HW219010   1.623   1.172   6.970 -0.8770 -1.4185 -0.4540
 5857SOL     OW19011   1.450   7.967   6.907 -0.4883  0.1478 -0.5302
 5857SOL    HW119012   1.392   7.936   6.977 -0.7785 -0.3339 -0.9686
 5857SOL    HW219013   1.530   7.994   6.951 -0.6004 -0.3281 -0.0253
 5858SOL     OW19014   0.533   6.986   6.436 -0.2017  0.2542 -0.3132
 5858SOL    HW119015   0.502   7.055   6.495  0.4618 -0.1617  0.5583
 5858SOL    HW219016   0.613   7.022   6.397 -1.3433  1.0478 -2.0110
 5859SOL     OW19017   0.791   6.909   7.657 -0.6485  0.0340 -0.3988
 5859SOL    HW119018   0.702   6.875   7.648 -0.1209 -1.1454 -1.4762
 5859SOL    HW219019   0.846   6.844   7.612  0.5712  1.5911 -1.2331
 5860SOL     OW19020   7.089   7.942   5.609  0.4777  0.4108  0.5280
 5860SOL    HW119021   7.017   7.991   5.569 -0.5884 -1.4160  0.0872
 5860SOL    HW219022   7.168   7.986   5.579 -0.4118  1.3064 -0.5851
 5861SOL     OW19023   7.546   1.303   7.581  0.1010 -0.5307 -0.2420
 5861SOL    HW119024   7.509   1.362   7.516  1.5773  0.7879  0.0472
 5861SOL    HW219025   7.547   1.218   7.538 -0.6877 -0.0529 -1.2440
 5862SOL     OW19026   2.952   6.662   6.184 -0.2289  0.2129  0.1504
 5862SOL    HW119027   3.006   6.605   6.238 -0.2696 -0.0307 -0.0602
 5862SOL    HW219028   2.890   6.702   6.245 -0.9150 -0.8094  0.1537
 5863SOL     OW19029   1.230   6.018   7.466  0.0457  0.3366 -0.0381
 5863SOL    HW119030   1.191   5.930   7.469 -0.0677  0.4165  1.1854
 5863SOL    HW219031   1.264   6.025   7.377 -0.7819 -0.5828 -0.4527
 5864SOL     OW19032   7.486   1.051   4.349  0.2148 -0.3571  0.7581
 5864SOL    HW119033   7.442   0.972   4.380  0.6860 -0.5976  0.8240
 5864SOL    HW219034   7.415   1.108   4.319 -0.0527 -1.3422 -0.5756
 5865SOL     OW19035   7.864   7.383   5.768 -0.7881  0.5118 -0.0166
 5865SOL    HW119036   7.806   7.330   5.824  0.2724  0.9928  1.6025
 5865SOL    HW219037   7.931   7.322   5.739 -1.5241  0.1826 -1.0945
 5866SOL     OW19038   2.868   7.662   6.347 -0.5056 -0.0644  0.1065
 5866SOL    HW119039   2.876   7.653   6.442 -1.0868 -1.2819  0.0637
 5866SOL    HW219040   2.892   7.575   6.313 -1.9554 -0.1627 -0.7332
 5867SOL     OW19041   6.622   0.536   7.562 -0.2530  0.0160 -0.7069
 5867SOL    HW119042   6.684   0.570   7.627 -0.5925 -1.6267  0.5497
 5867SOL    HW219043   6.588   0.455   7.601 -0.5201 -1.0200 -2.9089
 5868SOL     OW19044   6.878   0.226   5.161  0.0104 -0.1124 -0.3855
 5868SOL    HW119045   6.813   0.236   5.091 -0.8609 -0.8949  0.2947
 5868SOL    HW219046   6.891   0.131   5.168 -0.4712 -0.0925  1.0135
 5869SOL     OW19047   2.199   7.717   6.125 -0.6145  0.1301 -0.4555
 5869SOL    HW119048   2.136   7.679   6.064 -0.0412  1.1446 -1.7271
 5869SOL    HW219049   2.195   7.811   6.110  0.9498  0.2525 -0.3506
 5870SOL     OW19050   7.863   5.769   6.329 -0.3044 -0.2750  0.3259
 5870SOL    HW119051   7.916   5.713   6.273  0.3639 -0.5677  1.2352
 5870SOL    HW219052   7.774   5.761   6.294  0.2604  0.4072 -1.3543
 5871SOL     OW19053   0.527   0.332   8.083  0.1627  0.0569 -0.4553
 5871SOL    HW119054   0.574   0.319   8.001  1.2380  2.8938 -0.3978
 5871SOL    HW219055   0.579   0.284   8.148  1.5990  1.0439 -0.8240
 5872SOL     OW19056   7.912   0.056   6.485  0.0389 -0.6133 -0.0009
 5872SOL    HW119057   7.822   0.032   6.460 -1.0476  1.0931  1.9341
 5872SOL    HW219058   7.935   0.127   6.427 -0.4937 -0.0396  0.4697
 5873SOL     OW19059   2.738   6.762   5.430 -0.4773 -0.4497  0.8710
 5873SOL    HW119060   2.708   6.688   5.482 -1.1050 -1.4284 -0.7969
 5873SOL    HW219061   2.821   6.787   5.470 -0.9999 -1.0539  2.4064
 5874SOL     OW19062   2.497   2.555   6.077  0.4500 -0.8416  0.4846
 5874SOL    HW119063   2.492   2.591   6.165  0.9487  0.4498  0.0025
 5874SOL    HW219064   2.486   2.630   6.019 -0.5365 -1.7584 -0.5726
 5875SOL     OW19065   0.906   5.232   8.771  0.2302 -0.0504  0.2817
 5875SOL    HW119066   0.945   5.166   8.713 -2.2645  0.2949 -2.0337
 5875SOL    HW219067   0.974   5.299   8.781  1.1534 -0.6762 -1.3711
 5876SOL     OW19068   0.020   0.584   6.378  0.4159  0.2160 -0.4961
 5876SOL    HW119069   0.043   0.578   6.470  0.6042  1.3659 -0.4469
 5876SOL    HW219070  -0.060   0.532   6.369  0.8872 -0.6289  0.1238
 5877SOL     OW19071   1.242   1.046   7.424  0.6370  0.0015 -0.3354
 5877SOL    HW119072   1.281   1.079   7.505  2.3511 -0.3435 -0.9844
 5877SOL    HW219073   1.315   1.036   7.364 -0.7142  1.0513 -2.2464
 5878SOL     OW19074   1.496   6.848   6.563 -0.4635  0.4035  0.3227
 5878SOL    HW119075   1.511   6.838   6.657 -0.7838  0.5656  0.3913
 5878SOL    HW219076   1.553   6.782   6.523 -0.6417  0.0418  0.6503
 5879SOL     OW19077   7.728   7.708   6.357 -0.2955  0.1329  0.5263
 5879SOL    HW119078   7.689   7.795   6.347 -0.8844  0.2283  2.9735
 5879SOL    HW219079   7.716   7.666   6.272 -1.1672  1.9747 -0.3135
 5880SOL     OW19080   7.036   0.665   6.518 -0.5278  0.2686 -0.2341
 5880SOL    HW119081   6.953   0.713   6.519  0.8867  2.9149 -1.0399
 5880SOL    HW219082   7.091   0.711   6.582  0.9020 -0.2925 -1.0132
 5881SOL     OW19083   1.897   7.548   6.333  0.1869 -0.4512  0.0601
 5881SOL    HW119084   1.855   7.481   6.278  0.3475 -0.4306 -0.0894
 5881SOL    HW219085   1.840   7.556   6.409 -1.1337  0.9387 -1.0117
 5882SOL     OW19086   3.578   6.828   5.675 -0.1586 -0.3845  0.1842
 5882SOL    HW119087   3.543   6.765   5.738  1.5330 -1.1176  0.4227
 5882SOL    HW219088   3.501   6.880   5.650 -1.3938 -1.8280  0.7743
 5883SOL     OW19089   7.796   0.324   3.912 -0.3024  0.2818  0.3357
 5883SOL    HW119090   7.721   0.366   3.953 -0.9840 -0.9618  0.4080
 5883SOL    HW219091   7.758   0.259   3.852  0.6507  1.7697 -2.0534
 5884SOL     OW19092   2.534   7.026   5.233 -0.1330 -0.2028  0.1645
 5884SOL    HW119093   2.451   7.038   5.187  0.4037  1.8510 -0.3774
 5884SOL    HW219094   2.584   7.105   5.214  3.0254 -2.3754 -1.6869
 5885SOL     OW19095   1.464   7.446   5.499  0.2401 -0.3072  0.1157
 5885SOL    HW119096   1.387   7.395   5.524 -0.0772 -0.5892 -1.3274
 5885SOL    HW219097   1.529   7.381   5.473  0.1101 -0.0384 -0.9642
 5886SOL     OW19098   7.410   7.627   5.836 -0.0784 -0.3981 -0.2123
 5886SOL    HW119099   7.478   7.687   5.865  0.9722 -0.5236 -2.2582
 5886SOL    HW219100   7.451   7.541   5.838 -0.1898 -0.4921 -1.3303
 5887SOL     OW19101   7.846   1.010   6.469  0.2699  0.1673 -0.2177
 5887SOL    HW119102   7.879   0.974   6.387 -1.3242 -1.4481 -0.1863
 5887SOL    HW219103   7.864   1.104   6.462  0.5993  0.0008 -2.1954
 5888SOL     OW19104   1.227   6.941   7.092  0.1420 -0.1004  0.4106
 5888SOL    HW119105   1.287   6.868   7.106 -1.3496 -1.3098  0.8041
 5888SOL    HW219106   1.204   6.935   7.000  0.0268 -0.1270  0.4410
 5889SOL     OW19107   7.586   7.671   6.811 -0.0859  0.2047 -0.2519
 5889SOL    HW119108   7.604   7.729   6.737 -1.7326 -1.1414 -1.8118
 5889SOL    HW219109   7.509   7.621   6.784  0.8420 -2.2229  1.2844
 5890SOL     OW19110   7.762   0.784   7.028 -0.0705 -1.0410 -0.3801
 5890SOL    HW119111   7.769   0.876   7.004 -0.0792 -1.4568 -2.1549
 5890SOL    HW219112   7.808   0.777   7.111  0.9253  0.3552 -0.7777
 5891SOL     OW19113   3.379   7.552   4.734  0.5742  0.2715 -0.5509
 5891SOL    HW119114   3.449   7.616   4.744  0.8923 -0.3945  2.1149
 5891SOL    HW219115   3.411   7.493   4.664  1.5609  1.3253 -1.0296
 5892SOL     OW19116   0.801   7.203   8.763  0.0243  0.4341  0.0774
 5892SOL    HW119117   0.708   7.192   8.745  0.0214  1.4519 -0.5885
 5892SOL    HW219118   0.844   7.138   8.706 -0.2565  0.0511  0.2933
 5893SOL     OW19119   0.162   0.418   7.414  0.2964 -0.5579 -0.2845
 5893SOL    HW119120   0.193   0.452   7.498  1.3693  0.5895 -1.1170
 5893SOL    HW219121   0.075   0.382   7.434 -0.2904  1.3846  0.9643
 5894SOL     OW19122   0.909   0.497   6.251  0.0386 -0.0908  0.3309
 5894SOL    HW119123   0.977   0.431   6.240 -0.5917 -1.2807  2.8344
 5894SOL    HW219124   0.953   0.580   6.232  0.9301 -1.0893 -2.5702
 5895SOL     OW19125   1.959   6.749   6.897 -0.0771 -0.1080  0.2377
 5895SOL    HW119126   1.893   6.758   6.965 -0.6622 -2.3186  0.0291
 5895SOL    HW219127   1.991   6.660   6.905  1.1999  0.1652 -1.1906
 5896SOL     OW19128   7.291   6.313   7.154 -0.3188 -0.2350 -0.3137
 5896SOL    HW119129   7.355   6.290   7.221 -0.4670  0.1089 -0.0499
 5896SOL    HW219130   7.304   6.407   7.140 -0.4752 -0.2496 -0.5708
 5897SOL     OW19131   2.464   7.177   7.579  0.1650 -0.1047 -0.1766
 5897SOL    HW119132   2.521   7.141   7.511 -0.6644  0.1889 -1.0396
 5897SOL    HW219133   2.376   7.172   7.542 -0.3858 -0.5702  1.1483
 5898SOL     OW19134   1.577   6.606   8.724  0.7888 -0.8107 -0.5034
 5898SOL    HW119135   1.657   6.581   8.678  0.7506  0.1553 -1.1225
 5898SOL    HW219136   1.552   6.690   8.685  0.9822  0.2809  1.5860
 5899SOL     OW19137   0.752   0.030   5.713 -0.3310 -0.1581 -0.1638
 5899SOL    HW119138   0.812  -0.028   5.758 -0.6039  1.3050  2.2357
 5899SOL    HW219139   0.808   0.091   5.666 -0.0123 -0.5853 -0.3489
 5900SOL     OW19140   0.007   5.850   4.939 -0.4170  0.0572 -0.4887
 5900SOL    HW119141   0.073   5.820   5.001 -1.0583 -0.0795  0.1405
 5900SOL    HW219142  -0.028   5.931   4.978 -1.5703 -0.5917 -0.1141
 5901SOL     OW19143   6.775   7.504   6.644  0.3333 -0.0148 -0.1270
 5901SOL    HW119144   6.785   7.469   6.732  0.1531 -0.8770 -0.4376
 5901SOL    HW219145   6.847   7.567   6.635 -0.5603  1.2620  1.1672
 5902SOL     OW19146   0.515   1.011   6.265 -0.4191 -0.7074  0.0676
 5902SOL    HW119147   0.593   1.041   6.310  0.8875 -3.2827 -0.2978
 5902SOL    HW219148   0.547   0.967   6.187 -2.4274  0.4544 -1.5329
 5903SOL     OW19149   1.470   0.625   6.624 -0.2856 -0.1317 -0.2490
 5903SOL    HW119150   1.448   0.709   6.664  0.3905  0.4921 -1.1501
 5903SOL    HW219151   1.499   0.571   6.697 -0.8133  0.3840  0.3576
 5904SOL     OW19152   0.639   7.598   6.973 -0.4599 -0.2118 -0.6285
 5904SOL    HW119153   0.545   7.616   6.974 -0.5944 -0.8602 -0.9724
 5904SOL    HW219154   0.645   7.504   6.958  0.2290 -0.3762  0.5272
 5905SOL     OW19155   0.331   0.395   6.371  0.3335  0.1397  0.0333
 5905SOL    HW119156   0.307   0.312   6.332 -2.6413  1.1484 -0.5234
 5905SOL    HW219157   0.369   0.372   6.456  3.1293 -1.8673 -1.5954
 5906SOL     OW19158   1.653   0.794   8.307  0.0651 -0.0109  0.0828
 5906SOL    HW119159   1.622   0.797   8.397  1.6760  1.7266  0.6261
 5906SOL    HW219160   1.607   0.865   8.263  0.1023 -0.1575 -0.1976
 5907SOL     OW19161   0.493   0.155   6.523  0.0219 -0.0807  0.0185
 5907SOL    HW119162   0.573   0.183   6.478  0.1283 -0.6763 -0.1830
 5907SOL    HW219163   0.429   0.144   6.452  0.6190 -2.5230 -0.2415
 5908SOL     OW19164   1.966   5.146   5.765 -0.5576  0.3867  0.4213
 5908SOL    HW119165   1.989   5.055   5.781  0.0211  0.3673 -0.4890
 5908SOL    HW219166   2.005   5.167   5.681 -1.3471  1.2497  0.2463
 5909SOL     OW19167   0.089   7.780   7.208 -0.2719  0.2794  0.4942
 5909SOL    HW119168  -0.004   7.800   7.196 -0.7135 -2.0793 -0.4780
 5909SOL    HW219169   0.112   7.822   7.291 -1.4610  3.1815 -0.5070
 5910SOL     OW19170   1.520   6.849   7.445 -0.2960  0.2498 -0.0979
 5910SOL    HW119171   1.592   6.910   7.462 -0.3005 -0.2357  1.8931
 5910SOL    HW219172   1.527   6.830   7.352  0.2274  2.6025 -0.5952
 5911SOL     OW19173   1.956   0.711   6.500 -0.4427  0.5731 -0.1916
 5911SOL    HW119174   1.964   0.806   6.494 -2.5350  0.6850 -3.1815
 5911SOL    HW219175   2.019   0.677   6.437 -0.0929 -0.0220  0.4644
 5912SOL     OW19176   0.077   7.637   5.902  0.6421  0.4171  0.2360
 5912SOL    HW119177   0.093   7.605   5.813 -0.2996  0.6550 -0.0291
 5912SOL    HW219178   0.154   7.688   5.923  1.5053 -0.7839  0.0937
 5913SOL     OW19179   7.460   0.371   8.939  0.0433  0.3587  0.0132
 5913SOL    HW119180   7.456   0.354   8.845  0.9486 -0.1140  0.0429
 5913SOL    HW219181   7.552   0.393   8.955  0.1892 -0.8947  0.9988
 5914SOL     OW19182   0.041   2.686   8.584  0.2455 -0.3404 -0.6256
 5914SOL    HW119183  -0.047   2.716   8.562  0.6021  0.4005 -1.1169
 5914SOL    HW219184   0.029   2.627   8.658 -0.7676 -1.0884 -1.3622
 5915SOL     OW19185   1.286   1.351   7.656 -0.3435 -0.2208  0.3172
 5915SOL    HW119186   1.262   1.425   7.712  0.5033 -0.3761  0.9083
 5915SOL    HW219187   1.261   1.379   7.567 -1.8795 -0.0528  0.7724
 5916SOL     OW19188   0.962   1.420   8.046 -0.2506  0.0040 -0.3148
 5916SOL    HW119189   0.878   1.416   8.091 -0.1643  1.3898  0.0292
 5916SOL    HW219190   0.945   1.383   7.959 -1.4539  1.0978 -0.5784
 5917SOL     OW19191   0.465   7.977   9.209 -0.5215  0.3123 -0.3246
 5917SOL    HW119192   0.496   7.906   9.266 -0.6843  0.5113  0.0167
 5917SOL    HW219193   0.378   7.949   9.181 -0.3394  0.0982 -0.6780
 5918SOL     OW19194   1.621   0.797   9.670  0.4460 -0.1368  0.4831
 5918SOL    HW119195   1.680   0.728   9.701  1.0827  0.4048  0.4958
 5918SOL    HW219196   1.541   0.751   9.643  0.6054 -0.8032  1.1350
 5919SOL     OW19197   5.590   7.338   6.636  0.3116  0.1143 -0.1848
 5919SOL    HW119198   5.555   7.404   6.577  0.3204 -1.7434 -2.3942
 5919SOL    HW219199   5.515   7.309   6.688 -0.2854 -0.0835 -1.1523
 5920SOL     OW19200   1.150   7.890   9.046 -0.5322  0.1462 -0.5295
 5920SOL    HW119201   1.130   7.863   9.135 -0.0540 -0.4146 -0.5858
 5920SOL    HW219202   1.066   7.883   8.999 -1.2791  2.4148  0.3225
 5921SOL     OW19203   0.361   0.390   9.100 -0.2120  0.5868  0.4301
 5921SOL    HW119204   0.295   0.322   9.112  0.9406 -0.3842  1.6160
 5921SOL    HW219205   0.395   0.376   9.011 -0.7829  0.3643  0.2452
 5922SOL     OW19206   1.161   7.605   8.800  0.1125  0.2898  0.1604
 5922SOL    HW119207   1.148   7.700   8.807  0.7143  0.3918 -0.0169
 5922SOL    HW219208   1.247   7.590   8.840  0.3284 -0.0870 -0.4354
 5923SOL     OW19209   2.220   0.902   7.395 -0.0019 -0.6103 -0.3242
 5923SOL    HW119210   2.208   0.985   7.443  1.1163 -0.2773 -0.5980
 5923SOL    HW219211   2.146   0.899   7.334 -0.6716 -0.3651  0.4604
 5924SOL     OW19212   1.400   7.731   9.768 -0.2025  0.0471 -0.1743
 5924SOL    HW119213   1.359   7.719   9.854 -2.2814 -0.3068 -1.1562
 5924SOL    HW219214   1.395   7.645   9.726  0.5875  0.2689 -0.7596
 5925SOL     OW19215   2.603   7.544   8.594  0.3339 -0.2700 -0.4873
 5925SOL    HW119216   2.594   7.627   8.547  2.1869  0.2592  0.0102
 5925SOL    HW219217   2.527   7.540   8.651 -0.5090  0.3998 -1.5320
 5926SOL     OW19218   0.634   0.256   7.496  0.5458 -0.1131 -0.6919
 5926SOL    HW119219   0.555   0.253   7.443 -0.1984 -0.8733  0.4041
 5926SOL    HW219220   0.643   0.348   7.522 -0.1013 -0.0579 -0.6522
 5927SOL     OW19221   7.204   0.477   7.584  0.2542 -0.1993 -0.6587
 5927SOL    HW119222   7.295   0.449   7.598  0.5577  0.5228 -1.1832
 5927SOL    HW219223   7.153   0.413   7.634  1.0927 -0.1014  0.3879
 5928SOL     OW19224   7.785   1.050   7.928  0.1112  0.2079 -0.0261
 5928SOL    HW119225   7.845   1.122   7.910  1.2071 -0.1373  1.9600
 5928SOL    HW219226   7.753   1.024   7.841  0.7261  2.1715 -0.9016
 5929SOL     OW19227   1.011   0.237   8.409 -0.0938 -0.1671 -0.2668
 5929SOL    HW119228   1.094   0.274   8.440  2.3052 -1.8750 -3.9291
 5929SOL    HW219229   1.019   0.143   8.424 -2.0911 -0.2433  0.6416
 5930SOL     OW19230   6.876   1.797   6.361  0.1777  0.1220  0.6551
 5930SOL    HW119231   6.808   1.859   6.333 -1.1064  0.2706  3.7668
 5930SOL    HW219232   6.917   1.770   6.279 -2.1871  1.6683 -1.2128
 5931SOL     OW19233   6.554   0.153   7.069  0.3849 -0.2908  0.0545
 5931SOL    HW119234   6.466   0.133   7.100 -0.2260  1.2233 -0.6187
 5931SOL    HW219235   6.541   0.193   6.983  1.6980  0.4220  0.1506
 5932SOL     OW19236   0.303   1.896   7.864  0.2883 -0.1583 -0.6884
 5932SOL    HW119237   0.355   1.858   7.793  0.2560  2.3528 -2.1637
 5932SOL    HW219238   0.213   1.892   7.833  0.2580  0.8147 -0.7473
 5933SOL     OW19239   1.717   0.401  10.693  0.1198  0.0646 -0.2862
 5933SOL    HW119240   1.701   0.480  10.640 -2.6742 -0.0852  0.1944
 5933SOL    HW219241   1.672   0.419  10.776 -0.3740 -1.9168 -0.0813
 5934SOL     OW19242   6.718   6.931   7.377  0.0984 -0.2482  0.4123
 5934SOL    HW119243   6.811   6.930   7.356  0.2757  0.8311  1.1140
 5934SOL    HW219244   6.683   6.855   7.330  1.2044 -0.2859 -0.4015
 5935SOL     OW19245   7.671   5.839   6.574 -0.2833  0.6318 -0.1648
 5935SOL    HW119246   7.761   5.853   6.545 -0.1895 -0.8127 -0.6700
 5935SOL    HW219247   7.674   5.757   6.623 -1.4787  0.0395 -1.0158
 5936SOL     OW19248   0.691   7.251   8.178 -0.0360  0.4322 -0.6865
 5936SOL    HW119249   0.633   7.280   8.248  1.0629  1.9087 -0.3241
 5936SOL    HW219250   0.767   7.214   8.223 -0.9796 -2.2715 -1.1528
 5937SOL     OW19251   7.903   0.202   9.318 -0.2342 -0.4709 -0.4831
 5937SOL    HW119252   7.933   0.172   9.404 -1.3605 -1.0565 -0.2700
 5937SOL    HW219253   7.880   0.122   9.271  0.2688 -0.1480 -1.3048
 5938SOL     OW19254   7.977   1.900   9.535 -0.1307 -0.0097 -0.1962
 5938SOL    HW119255   7.886   1.899   9.562 -0.2395 -0.9883 -0.5676
 5938SOL    HW219256   8.001   1.808   9.525  0.9518  0.2200  0.0717
 5939SOL     OW19257   0.001   6.717   9.093  0.3187  0.8820 -0.7058
 5939SOL    HW119258  -0.091   6.740   9.108  0.1536 -0.7462  1.2387
 5939SOL    HW219259   0.044   6.742   9.175  1.5845  1.3954 -1.5053
 5940SOL     OW19260   2.824   0.249   8.752  0.1435 -0.3779  0.2180
 5940SOL    HW119261   2.919   0.246   8.741  0.2291  0.9258  0.4310
 5940SOL    HW219262   2.791   0.264   8.664  0.2958  1.3564  0.4180
 5941SOL     OW19263   1.630   0.964   6.610  0.2646 -0.1142 -0.0388
 5941SOL    HW119264   1.665   0.882   6.644 -0.8355  0.0842  1.6748
 5941SOL    HW219265   1.550   0.979   6.660  0.3752  1.9549 -0.3902
 5942SOL     OW19266   1.736   4.718   9.134 -0.2823 -0.6932 -0.2731
 5942SOL    HW119267   1.755   4.628   9.162 -0.4554 -0.8235 -0.5750
 5942SOL    HW219268   1.729   4.713   9.039 -0.6708 -0.4342 -0.2615
 5943SOL     OW19269   0.536   7.064   9.447  0.4568  0.1463 -0.6352
 5943SOL    HW119270   0.573   7.152   9.438  0.4458  0.4835  1.9716
 5943SOL    HW219271   0.491   7.065   9.531  0.9721 -2.5294 -0.2271
 5944SOL     OW19272   1.681   0.136   8.405  0.5488  0.2123 -0.2309
 5944SOL    HW119273   1.772   0.111   8.420  0.2292  0.3011  2.2453
 5944SOL    HW219274   1.660   0.195   8.477 -1.4895  0.1828 -0.7381
 5945SOL     OW19275   2.060   7.838  10.478 -0.1264 -0.1172  0.3349
 5945SOL    HW119276   2.144   7.834  10.525  1.4348 -1.4965 -2.2756
 5945SOL    HW219277   2.030   7.747  10.476 -0.9850  0.1647  0.0766
 5946SOL     OW19278   0.372   1.906   9.377  0.0635  0.5965 -0.0895
 5946SOL    HW119279   0.416   1.906   9.292  1.7979  0.0356  0.7743
 5946SOL    HW219280   0.440   1.881   9.440 -1.6331 -0.8984  1.2394
 5947SOL     OW19281   0.308   7.540   8.290  0.2167 -0.2501 -0.0968
 5947SOL    HW119282   0.330   7.593   8.214 -0.4185 -0.1235 -0.1955
 5947SOL    HW219283   0.247   7.474   8.257 -1.0699  0.5790  0.5421
 5948SOL     OW19284   1.842   0.917  10.501 -0.1953 -0.0115 -0.4972
 5948SOL    HW119285   1.824   0.947  10.411  1.0646  0.2156 -0.6945
 5948SOL    HW219286   1.858   0.998  10.550  3.8415 -0.2082 -1.1678
 5949SOL     OW19287   6.594   0.242   8.693  0.5905  0.3056 -0.0619
 5949SOL    HW119288   6.631   0.257   8.780  0.1994 -0.0937  0.1758
 5949SOL    HW219289   6.649   0.172   8.656 -0.3972 -0.8516  0.6008
 5950SOL     OW19290   0.087   6.380   9.694 -0.6459 -0.3020 -0.2960
 5950SOL    HW119291  -0.001   6.350   9.715 -0.4608 -1.4861 -1.1405
 5950SOL    HW219292   0.137   6.301   9.677  0.8089  0.2961  0.9041
 5951SOL     OW19293   0.655   7.409   7.909  0.3266 -0.4021 -0.0441
 5951SOL    HW119294   0.653   7.441   7.819  0.9170 -1.6818 -0.5298
 5951SOL    HW219295   0.589   7.461   7.954  1.1191  1.3757 -0.8244
 5952SOL     OW19296   1.683   2.970   6.631 -0.3849 -0.2960 -0.3846
 5952SOL    HW119297   1.761   3.014   6.666 -0.6342  0.1128 -0.3454
 5952SOL    HW219298   1.697   2.877   6.652  0.8759 -0.4781 -1.8317
 5953SOL     OW19299   7.304   7.945  11.179  0.3470  0.5154  0.6075
 5953SOL    HW119300   7.329   7.856  11.156  1.1006  0.8763 -0.0374
 5953SOL    HW219301   7.348   8.000  11.113 -0.5440  1.3206  0.6570
 5954SOL     OW19302   1.047   0.652   9.006 -0.5153  0.0337 -0.1450
 5954SOL    HW119303   1.118   0.715   9.019  1.5139 -1.5652 -2.5460
 5954SOL    HW219304   0.998   0.688   8.932 -0.9879  0.0970  0.1935
 5955SOL     OW19305   2.190   7.580  10.145 -0.0940  0.1758  0.5182
 5955SOL    HW119306   2.173   7.532  10.226 -1.0061 -0.0953  0.1746
 5955SOL    HW219307   2.181   7.672  10.169  0.5891  0.1387  0.9348
 5956SOL     OW19308   2.783   7.941   9.613  0.2741 -0.4435 -0.4030
 5956SOL    HW119309   2.844   7.984   9.552  0.5085 -0.8402 -0.4546
 5956SOL    HW219310   2.723   8.011   9.640  2.5034  0.7471  1.9734
 5957SOL     OW19311   1.198   1.170  10.158  0.1234 -0.1108  0.1765
 5957SOL    HW119312   1.212   1.084  10.197  0.1894  0.0156  0.4365
 5957SOL    HW219313   1.281   1.190  10.114  0.3036  0.0526  0.5776
 5958SOL     OW19314   2.719   7.534   7.536 -0.5585 -0.0484 -0.0181
 5958SOL    HW119315   2.728   7.468   7.467  1.4544 -0.3612  0.4572
 5958SOL    HW219316   2.652   7.500   7.594 -1.5305 -0.2958 -1.2437
 5959SOL     OW19317   2.024   0.890   7.791  0.1646 -0.2020 -0.3044
 5959SOL    HW119318   2.094   0.828   7.809  0.1798  0.1307  0.8711
 5959SOL    HW219319   2.069   0.972   7.770  0.1295 -0.1967 -0.3604
 5960SOL     OW19320   7.928   0.221   8.598  0.0392  0.2940  0.0608
 5960SOL    HW119321   7.899   0.131   8.610  0.5832 -0.4580 -3.1723
 5960SOL    HW219322   8.018   0.213   8.566  0.2187  2.0198  0.0403
 5961SOL     OW19323   0.860   6.264   8.659 -0.8660  0.4330  0.4609
 5961SOL    HW119324   0.772   6.270   8.623 -0.5072 -0.7635 -0.6856
 5961SOL    HW219325   0.856   6.193   8.722 -0.2853 -1.1023 -1.1298
 5962SOL     OW19326   0.520   7.605   8.943  0.3953  0.0119  0.3133
 5962SOL    HW119327   0.590   7.539   8.948 -0.6958 -1.4135 -1.8050
 5962SOL    HW219328   0.555   7.680   8.991  2.4052 -1.4735  1.3433
 5963SOL     OW19329   7.657   0.952   7.732 -0.1513 -0.2419 -0.5021
 5963SOL    HW119330   7.613   0.891   7.792 -0.3031  0.9513  0.6395
 5963SOL    HW219331   7.610   0.943   7.649 -0.8260 -0.9218 -0.0501
 5964SOL     OW19332   2.417   0.124   8.570  0.2300 -0.2273 -0.2928
 5964SOL    HW119333   2.338   0.161   8.609 -0.0601 -0.8256 -0.2983
 5964SOL    HW219334   2.409   0.144   8.476 -0.1830 -0.7359 -0.3757
 5965SOL     OW19335   7.145   7.287   8.349  0.1333 -0.0506 -0.0303
 5965SOL    HW119336   7.109   7.319   8.266 -1.1179  1.6647  1.0967
 5965SOL    HW219337   7.071   7.244   8.393  0.3874  0.2937  0.7616
 5966SOL     OW19338   0.006   0.216   7.584  0.4320  0.1108 -0.2865
 5966SOL    HW119339  -0.046   0.149   7.628  1.1841 -0.2902  0.0131
 5966SOL    HW219340   0.078   0.167   7.542  1.4469  0.7948  0.6108
 5967SOL     OW19341   7.083   7.113   7.178 -0.1519 -0.4028 -0.3049
 5967SOL    HW119342   7.163   7.166   7.186  0.0192 -0.6221 -0.5199
 5967SOL    HW219343   7.037   7.125   7.261  0.6592 -1.1670  0.2733
 5968SOL     OW19344   1.184   6.525   8.969 -0.1789  0.3427  0.0020
 5968SOL    HW119345   1.136   6.444   8.951 -0.3451  0.2354  0.8934
 5968SOL    HW219346   1.168   6.543   9.062  0.3230  1.0909 -0.0432
 5969SOL     OW19347   7.697   6.132   8.054 -0.1599  0.2102  0.0554
 5969SOL    HW119348   7.716   6.163   8.142  0.1607  0.8086 -0.2185
 5969SOL    HW219349   7.660   6.044   8.067  0.8699 -0.1462  0.7247
 5970SOL     OW19350   1.115   7.937   8.190 -0.2619 -0.2313  0.6738
 5970SOL    HW119351   1.173   7.864   8.166  1.2454  0.6298  1.5182
 5970SOL    HW219352   1.160   7.980   8.263 -0.3285  2.4559 -0.7617
 5971SOL     OW19353   0.174   6.632   9.659 -0.3344  0.2083 -0.3423
 5971SOL    HW119354   0.180   6.538   9.671  0.7221  0.4548  1.4287
 5971SOL    HW219355   0.081   6.651   9.653 -0.6409 -0.7554  1.1486
 5972SOL     OW19356   1.067   6.845   8.163  0.6539  0.2216  0.0669
 5972SOL    HW119357   1.019   6.799   8.095  0.0562 -0.3580  0.8654
 5972SOL    HW219358   1.153   6.862   8.125  1.2634 -2.4257  0.0478
 5973SOL     OW19359   0.108   7.682   8.626 -0.6603 -0.0783  0.1893
 5973SOL    HW119360   0.150   7.766   8.608 -1.3512  0.2600  0.1029
 5973SOL    HW219361   0.178   7.617   8.617  0.2816  0.6354  1.9139
 5974SOL     OW19362   7.882   1.306   8.707  0.3807 -0.5746  0.4688
 5974SOL    HW119363   7.957   1.253   8.735  1.4164 -0.0353 -1.1446
 5974SOL    HW219364   7.808   1.245   8.705  1.5894 -2.0932 -1.6275
 5975SOL     OW19365   0.566   0.936   8.511 -0.1914 -0.0453  0.3735
 5975SOL    HW119366   0.502   0.868   8.535 -1.2186  0.3061 -1.1478
 5975SOL    HW219367   0.650   0.901   8.539 -0.5410 -2.4806 -1.2258
 5976SOL     OW19368   1.527   6.895   7.779 -0.2768  0.1220 -0.1873
 5976SOL    HW119369   1.594   6.883   7.712  0.7351 -0.4708  0.8985
 5976SOL    HW219370   1.489   6.981   7.761  0.9110  0.5482 -0.7053
 5977SOL     OW19371   2.312   6.690   5.942  0.5953  0.2303  0.3986
 5977SOL    HW119372   2.335   6.711   6.033 -1.6273 -1.1908  1.3823
 5977SOL    HW219373   2.394   6.703   5.893  1.4605  2.6556  2.2656
 5978SOL     OW19374   7.401   7.616   7.516 -0.2021 -0.4037  0.4669
 5978SOL    HW119375   7.332   7.572   7.466 -0.1042 -2.3736  1.9367
 5978SOL    HW219376   7.460   7.650   7.450 -0.9125 -1.5152 -0.7935
 5979SOL     OW19377   0.971   7.581  11.092  0.0684  0.5968 -0.4459
 5979SOL    HW119378   0.907   7.534  11.145  0.6009 -0.7240 -0.9343
 5979SOL    HW219379   0.919   7.623  11.023 -0.3568  0.2663 -0.3304
 5980SOL     OW19380   7.734   7.721   8.551  0.0744 -0.8012  0.3125
 5980SOL    HW119381   7.666   7.741   8.487 -0.0003 -0.8006  0.3921
 5980SOL    HW219382   7.715   7.632   8.580 -1.1938 -0.0495  1.9447
 5981SOL     OW19383   2.208   7.523   9.086  0.1094  0.5528 -0.3667
 5981SOL    HW119384   2.289   7.522   9.136  0.0022  0.5873 -0.1895
 5981SOL    HW219385   2.146   7.571   9.141 -0.1812  0.0626 -0.2518
 5982SOL     OW19386   0.818   6.811  12.130 -0.1661 -0.4661 -0.1745
 5982SOL    HW119387   0.812   6.890  12.076  0.2941  1.2006  2.0685
 5982SOL    HW219388   0.901   6.772  12.105  0.8471  1.1917  0.4031
 5983SOL     OW19389   3.463   0.656  10.034  0.4602 -0.4573 -0.6259
 5983SOL    HW119390   3.505   0.708   9.965 -0.7253  0.6914 -0.5256
 5983SOL    HW219391   3.422   0.584   9.987  0.9367 -0.5378 -0.9326
 5984SOL     OW19392   1.588   0.121  11.334 -0.2647 -0.5471 -0.4443
 5984SOL    HW119393   1.583   0.177  11.257 -2.0748  1.2481  0.8738
 5984SOL    HW219394   1.550   0.037  11.306  0.5728 -0.4544 -1.9034
 5985SOL     OW19395   7.882   0.516  10.823  0.4342 -0.7495  0.1213
 5985SOL    HW119396   7.859   0.494  10.914  1.1795 -0.5105  0.3843
 5985SOL    HW219397   7.969   0.557  10.831  0.3861 -0.4850 -0.6756
 5986SOL     OW19398   0.077   7.228   9.692  0.4159  0.1676 -0.1745
 5986SOL    HW119399   0.046   7.284   9.764 -0.8822  1.2971 -1.5379
 5986SOL    HW219400   0.056   7.139   9.720  3.6231  0.0887  2.5945
 5987SOL     OW19401   7.811   1.046   9.909  0.0663 -0.1265 -0.3282
 5987SOL    HW119402   7.800   0.970   9.966 -1.6646  1.2291  1.3098
 5987SOL    HW219403   7.752   1.030   9.835  0.0514 -0.5672 -0.2249
 5988SOL     OW19404   0.371   7.478   9.448  0.2374 -0.5795 -0.7235
 5988SOL    HW119405   0.347   7.472   9.355  0.4006 -2.5637 -0.6929
 5988SOL    HW219406   0.297   7.522   9.490  0.0961  0.2042 -1.7598
 5989SOL     OW19407   1.224   7.864  10.255  0.4869  0.0742 -0.4191
 5989SOL    HW119408   1.214   7.855  10.160  0.2589  0.2753 -0.4135
 5989SOL    HW219409   1.154   7.810  10.291  1.2773 -0.9364 -0.3469
 5990SOL     OW19410   0.435   0.310   8.850  0.8960  0.8795 -0.0524
 5990SOL    HW119411   0.393   0.348   8.773 -1.1071 -0.7848  0.1289
 5990SOL    HW219412   0.499   0.249   8.814 -0.7934 -0.7284 -0.5287
 5991SOL     OW19413   1.064   7.806   9.310 -0.6297  0.0067  0.1618
 5991SOL    HW119414   1.089   7.794   9.402 -1.0346  0.2010  0.2986
 5991SOL    HW219415   1.005   7.733   9.293  1.8561 -1.9271 -0.8678
 5992SOL     OW19416   0.153   7.031   9.449  0.2944 -0.2138  0.1958
 5992SOL    HW119417   0.072   7.081   9.442  0.1397 -0.6122 -0.9951
 5992SOL    HW219418   0.205   7.059   9.374  0.1442 -1.9210 -0.5893
 5993SOL     OW19419   0.778   0.413  10.149 -0.0454  0.1025  0.3701
 5993SOL    HW119420   0.826   0.495  10.146 -1.9917  1.3370  0.7680
 5993SOL    HW219421   0.778   0.390  10.242 -0.3848  0.2304  0.4041
 5994SOL     OW19422   0.497   7.404  10.124 -0.0284  0.2046  0.0300
 5994SOL    HW119423   0.419   7.388  10.071  0.0023 -0.7905  0.2770
 5994SOL    HW219424   0.560   7.443  10.064 -0.2063 -0.3438 -0.5175
 5995SOL     OW19425   0.287   0.668  10.152  0.3768 -0.5828  0.1227
 5995SOL    HW119426   0.257   0.623  10.230 -0.0434  1.2851  1.1112
 5995SOL    HW219427   0.207   0.692  10.105  0.4878  0.4651  0.4337
 5996SOL     OW19428   0.270   0.263   9.465 -0.1940  0.0828  0.3510
 5996SOL    HW119429   0.319   0.345   9.470 -0.6200  0.3502  0.2146
 5996SOL    HW219430   0.249   0.253   9.372  0.7609 -0.7262  0.2020
 5997SOL     OW19431   0.797   7.379   9.695  0.3179 -0.4236 -0.3364
 5997SOL    HW119432   0.795   7.286   9.673 -1.4682 -1.1915  2.5262
 5997SOL    HW219433   0.771   7.382   9.787 -1.3844  3.0491 -0.7886
 5998SOL     OW19434   0.411   0.020   8.827 -0.1532  0.3469 -0.1208
 5998SOL    HW119435   0.414   0.076   8.905  0.1073  2.9870 -1.8909
 5998SOL    HW219436   0.319   0.019   8.801 -1.2663 -4.5941  2.7416
 5999SOL     OW19437   0.915   7.143  11.071  0.9732  0.3846  0.1520
 5999SOL    HW119438   0.887   7.056  11.043 -2.3821  0.6716  2.0460
 5999SOL    HW219439   0.854   7.203  11.028 -0.6470  1.2213  3.2865
 6000SOL     OW19440   1.372   7.423  10.168  0.1289 -0.1411  0.1002
 6000SOL    HW119441   1.416   7.367  10.104 -1.0512  0.4878 -1.3207
 6000SOL    HW219442   1.279   7.407  10.155 -0.2834  2.3894 -0.6222
 6001SOL     OW19443   0.776   7.955  10.317  0.0544  0.4133  0.5386
 6001SOL    HW119444   0.808   7.958  10.227 -0.6302 -2.4952  0.1104
 6001SOL    HW219445   0.694   8.004  10.314  0.6276  1.3806 -0.1087
 6002SOL     OW19446   0.884   6.140  10.456  0.3205  0.0931 -0.2172
 6002SOL    HW119447   0.851   6.129  10.546  0.1434 -0.9412 -0.3882
 6002SOL    HW219448   0.819   6.196  10.414 -1.1200 -1.6701 -0.4586
 6003SOL     OW19449   1.098   0.608   9.698 -0.3348 -0.6742 -0.3492
 6003SOL    HW119450   1.040   0.556   9.641 -0.3493 -0.7443 -0.2704
 6003SOL    HW219451   1.057   0.695   9.700 -0.1912 -0.5981 -0.6590
 6004SOL     OW19452   7.801   2.423  10.523 -0.4029 -0.4691  0.2140
 6004SOL    HW119453   7.798   2.336  10.562 -0.4089 -0.6392 -0.1640
 6004SOL    HW219454   7.872   2.418  10.459  0.1162  0.0310  0.7320
 6005SOL     OW19455   1.755   0.502   9.448  0.1164 -0.6406 -0.2470
 6005SOL    HW119456   1.680   0.447   9.471 -0.1096 -0.2336 -0.0041
 6005SOL    HW219457   1.809   0.504   9.527 -0.6094  0.6761  0.2419
 6006SOL     OW19458   7.307   7.003  10.738  0.4571  0.5676 -0.5171
 6006SOL    HW119459   7.337   6.982  10.650  0.3151 -0.0880 -0.4148
 6006SOL    HW219460   7.244   6.935  10.759 -0.3890  1.3852 -0.3545
 6007SOL     OW19461   1.349   6.982  10.960  0.6805 -0.4769 -0.4454
 6007SOL    HW119462   1.429   6.931  10.969  0.8450  0.0183  1.3853
 6007SOL    HW219463   1.375   7.058  10.908  0.9576 -1.1819 -1.3530
 6008SOL     OW19464   1.386   1.440   9.302 -0.0153  0.6027 -0.6934
 6008SOL    HW119465   1.340   1.368   9.346 -0.1843  1.0926 -0.0501
 6008SOL    HW219466   1.410   1.500   9.373  1.5031  0.4353 -1.0294
 6009SOL     OW19467   1.976   7.466  11.282 -0.0735  0.4784  0.2800
 6009SOL    HW119468   1.882   7.484  11.284 -0.3007 -0.6318  2.4840
 6009SOL    HW219469   1.993   7.439  11.191 -1.6503  1.6713 -0.4203
 6010SOL     OW19470   0.506   6.893  11.371 -0.4271  0.4516 -0.1962
 6010SOL    HW119471   0.598   6.908  11.351 -0.4995 -0.1292 -1.0496
 6010SOL    HW219472   0.478   6.972  11.417  0.2185  1.1202 -0.9110
 6011SOL     OW19473   1.022   0.889   9.671 -0.0608 -0.0536  0.0474
 6011SOL    HW119474   1.105   0.911   9.627 -1.0532  0.3435 -1.7028
 6011SOL    HW219475   0.957   0.943   9.627 -1.3703 -0.8572  0.9492
 6012SOL     OW19476   1.947   6.720   9.800 -0.1400  0.1605  0.3436
 6012SOL    HW119477   1.971   6.807   9.769 -0.6789 -0.0431 -0.6702
 6012SOL    HW219478   1.857   6.730   9.831  0.2890  0.2928  1.6318
 6013SOL     OW19479   2.005   0.044  10.714 -0.2206 -0.0828  0.0050
 6013SOL    HW119480   1.969   0.121  10.757  1.2914  1.0527 -0.6513
 6013SOL    HW219481   2.088   0.028  10.759  0.7774  0.3607 -1.5598
 6014SOL     OW19482   7.481   0.104  10.711  0.7186 -0.7291 -0.1351
 6014SOL    HW119483   7.468   0.197  10.733 -2.4433 -0.9809 -0.5485
 6014SOL    HW219484   7.483   0.102  10.616  2.1756 -0.9937 -0.1238
 6015SOL     OW19485   1.263   1.805   9.453 -0.0353  0.6720 -0.0481
 6015SOL    HW119486   1.203   1.763   9.392 -0.8694  1.9937 -0.1584
 6015SOL    HW219487   1.257   1.898   9.434 -0.3364  1.1270  2.0575
 6016SOL     OW19488   7.998   6.576  10.030  0.1273 -0.6796  0.2114
 6016SOL    HW119489   8.062   6.505  10.026  0.3865 -0.5055  0.9537
 6016SOL    HW219490   7.979   6.586  10.124 -0.4675 -0.2674  0.0563
 6017SOL     OW19491   0.875   5.622  10.068  0.3022  0.0791  0.2213
 6017SOL    HW119492   0.801   5.609  10.009 -1.1206 -0.7529  2.0745
 6017SOL    HW219493   0.951   5.592  10.018 -0.8435 -0.7294 -1.1261
 6018SOL     OW19494   0.439   6.731   8.963  0.1342 -0.1681 -0.5177
 6018SOL    HW119495   0.447   6.808   9.018 -0.8231 -1.5151  1.6309
 6018SOL    HW219496   0.352   6.737   8.925  0.5998  0.5004 -1.5111
 6019SOL     OW19497   1.428   6.615   9.183 -0.0413  0.2397  0.2552
 6019SOL    HW119498   1.433   6.708   9.206 -0.0057  0.4807 -0.6499
 6019SOL    HW219499   1.335   6.594   9.186 -0.0055  0.1801  0.9224
 6020SOL     OW19500   1.223   1.494   9.562 -0.5409  0.1063 -0.7190
 6020SOL    HW119501   1.254   1.522   9.648 -0.8827 -0.3789 -0.4333
 6020SOL    HW219502   1.237   1.570   9.505  0.4614  0.1458 -0.4292
 6021SOL     OW19503   1.825   1.373  11.575  0.0348  0.3996 -0.0948
 6021SOL    HW119504   1.761   1.405  11.511 -0.1800 -0.9732 -0.5916
 6021SOL    HW219505   1.846   1.450  11.627 -1.6697  1.0053 -0.2177
 6022SOL     OW19506   2.499   0.459   9.189  0.6267 -0.4384 -0.7929
 6022SOL    HW119507   2.426   0.434   9.133  1.0145 -0.5298 -1.2706
 6022SOL    HW219508   2.527   0.377   9.230  0.3689 -0.3784 -0.4939
 6023SOL     OW19509   0.507   7.855  10.099 -0.0540 -0.2289  0.2357
 6023SOL    HW119510   0.510   7.913  10.023  0.8997  0.4955  0.8029
 6023SOL    HW219511   0.429   7.801  10.085 -1.1782  1.4179 -0.1420
 6024SOL     OW19512   7.623   7.239  11.485 -0.4312  0.4733  0.2458
 6024SOL    HW119513   7.691   7.201  11.429 -0.7786 -0.7263  0.5973
 6024SOL    HW219514   7.620   7.181  11.562 -0.9867  1.2336  0.8158
 6025SOL     OW19515   2.478   7.411  10.843  0.1589 -0.5556  0.0884
 6025SOL    HW119516   2.441   7.352  10.908  0.2780 -1.1688 -0.3929
 6025SOL    HW219517   2.414   7.412  10.772  0.0716  0.0388  0.1683
 6026SOL     OW19518   2.315   7.790  10.584  0.6842 -0.0093 -0.4938
 6026SOL    HW119519   2.333   7.717  10.524  2.3446  0.4330 -0.5958
 6026SOL    HW219520   2.389   7.849  10.571 -1.2362  2.3468 -1.3363
 6027SOL     OW19521   1.906   0.779   9.389  0.5773 -0.8371 -0.5075
 6027SOL    HW119522   1.942   0.805   9.305  0.4985 -0.3501 -0.3925
 6027SOL    HW219523   1.966   0.710   9.420  1.8853  0.4615  0.0165
 6028SOL     OW19524   0.479   0.571  10.545 -0.2570  0.1391 -0.8243
 6028SOL    HW119525   0.468   0.656  10.587 -0.7698 -0.1379 -0.3966
 6028SOL    HW219526   0.508   0.593  10.456  0.3264  0.7359 -0.4946
 6029SOL     OW19527   0.978   7.114  10.156 -0.5538 -0.1748  0.1349
 6029SOL    HW119528   1.022   7.165  10.225  0.9090  1.6246 -1.9720
 6029SOL    HW219529   0.893   7.156  10.145 -0.3055  0.3017  0.0269
 6030SOL     OW19530   7.083   6.935  11.300 -0.2531 -0.1118 -0.5452
 6030SOL    HW119531   7.144   6.862  11.310 -0.0975  0.0861 -0.0153
 6030SOL    HW219532   7.114   6.981  11.222  0.8351  0.5157  0.2284
 6031SOL     OW19533   1.499   0.177   9.995 -0.3689 -0.4294 -0.0209
 6031SOL    HW119534   1.517   0.116   9.923  0.2593  0.2595 -0.4690
 6031SOL    HW219535   1.466   0.256   9.951  1.1792  0.4485  0.3184
 6032SOL     OW19536   7.303   7.367  12.440 -0.2884 -0.2472  0.3624
 6032SOL    HW119537   7.392   7.332  12.445 -0.0027  0.5266  0.7751
 6032SOL    HW219538   7.262   7.341  12.523 -0.3205 -0.2382  0.3492
 6033SOL     OW19539   1.341   0.451   8.075 -0.1472 -0.3752  0.0599
 6033SOL    HW119540   1.410   0.490   8.128 -1.1074  0.7686  0.5248
 6033SOL    HW219541   1.349   0.494   7.990 -0.0975 -0.4748  0.0136
 6034SOL     OW19542   7.419   7.627   9.971  0.6408 -0.8907  0.3715
 6034SOL    HW119543   7.413   7.612  10.065  0.8851 -1.5326  0.2903
 6034SOL    HW219544   7.365   7.558   9.932  1.1485 -1.0979  0.0170
 6035SOL     OW19545   7.760   0.526  10.215  0.0368  0.0231 -0.1241
 6035SOL    HW119546   7.723   0.547  10.301 -1.2511  1.0430 -0.8793
 6035SOL    HW219547   7.765   0.611  10.170 -3.0390 -0.8207 -2.4365
 6036SOL     OW19548   2.549   0.357   9.904  0.2525  0.4840  0.3887
 6036SOL    HW119549   2.523   0.420   9.838  0.8631 -0.0422 -0.3707
 6036SOL    HW219550   2.473   0.300   9.915  0.1866  0.5147  0.0797
 6037SOL     OW19551   7.045   0.754  11.664  0.8277 -0.0350  0.3977
 6037SOL    HW119552   6.967   0.697  11.661  0.5824  0.1386  2.5279
 6037SOL    HW219553   7.024   0.825  11.603 -0.3479 -0.3945  0.3459
 6038SOL     OW19554   1.584   7.900  10.511 -0.0291  0.1088 -0.3804
 6038SOL    HW119555   1.530   7.966  10.469 -0.2200 -0.1171 -0.4913
 6038SOL    HW219556   1.608   7.839  10.441  0.0472 -0.0053 -0.2570
 6039SOL     OW19557   1.361   0.415  11.695 -0.7509  0.1656 -0.1221
 6039SOL    HW119558   1.389   0.331  11.660  1.7505  0.5083  0.8881
 6039SOL    HW219559   1.305   0.452  11.626  0.1343 -1.2214 -1.6510
 6040SOL     OW19560   0.756   7.282  10.922 -0.0582  0.0369 -0.1457
 6040SOL    HW119561   0.765   7.301  10.829 -2.9024 -2.0084 -0.9714
 6040SOL    HW219562   0.698   7.350  10.956  1.0374  0.8256  0.1936
 6041SOL     OW19563   7.900   7.950   8.633  0.0554 -0.2209 -0.2151
 6041SOL    HW119564   7.865   7.927   8.547 -1.0018 -0.0740  0.1708
 6041SOL    HW219565   7.851   7.896   8.695  2.5082 -2.2233  0.1432
 6042SOL     OW19566   7.417   0.355  10.752  0.0939  0.1831  0.8447
 6042SOL    HW119567   7.463   0.435  10.726  0.1999 -0.0499  0.2873
 6042SOL    HW219568   7.325   0.380  10.756  0.2808  0.6969  2.1437
 6043SOL     OW19569   2.406   7.325   9.574  0.4797 -0.0897 -0.1832
 6043SOL    HW119570   2.473   7.259   9.557  1.1867  0.8439 -1.1800
 6043SOL    HW219571   2.429   7.361   9.659 -1.1940 -2.5786  1.4462
 6044SOL     OW19572   0.658   6.685  11.591 -0.1919 -0.0956  0.4923
 6044SOL    HW119573   0.666   6.599  11.633 -0.4543  1.0319  3.0417
 6044SOL    HW219574   0.568   6.686  11.557 -0.9463 -0.0959  2.3626
 6045SOL     OW19575   7.912   6.182  12.328  0.0921 -0.6033 -0.1457
 6045SOL    HW119576   7.883   6.268  12.359  0.7158  0.4434 -2.3099
 6045SOL    HW219577   7.832   6.131  12.318 -0.1596 -1.0765  3.1301
 6046SOL     OW19578   1.923   6.751  11.549  0.2751 -1.0369 -0.1769
 6046SOL    HW119579   1.846   6.807  11.556  1.3627  0.5023  0.0708
 6046SOL    HW219580   1.911   6.684  11.616 -1.2095 -1.3103 -0.6896
 6047SOL     OW19581   1.390   7.556  11.098  0.3571  0.1497  0.5013
 6047SOL    HW119582   1.367   7.468  11.068 -0.8858  0.8470 -0.6932
 6047SOL    HW219583   1.424   7.600  11.021  1.7035  0.5215  1.2646
 6048SOL     OW19584   1.854   0.071  11.473  0.1722  0.2228 -0.2823
 6048SOL    HW119585   1.778   0.056  11.416  0.4814 -0.9151 -0.4179
 6048SOL    HW219586   1.872   0.164  11.465 -2.1444  0.8599  0.9265
 6049SOL     OW19587   7.430   7.478   0.278 -0.2384 -0.1846 -0.4017
 6049SOL    HW119588   7.381   7.557   0.300 -0.5684 -0.8361  1.3870
 6049SOL    HW219589   7.365   7.420   0.238 -0.5222 -0.3447  0.2702
 6050SOL     OW19590   0.374   6.070  11.689  0.5574 -0.0225 -0.4208
 6050SOL    HW119591   0.415   6.011  11.625 -1.7246 -0.8119 -1.2269
 6050SOL    HW219592   0.357   6.015  11.765  1.4900  0.4534  0.1493
 6051SOL     OW19593   1.476   6.711  12.053 -0.4666  0.6906 -0.0856
 6051SOL    HW119594   1.485   6.693  12.146  0.5864  0.2699 -0.2593
 6051SOL    HW219595   1.562   6.692  12.016 -1.1730 -0.2119 -1.3294
 6052SOL     OW19596   0.802   7.739  12.180 -0.2122 -0.2259 -0.3090
 6052SOL    HW119597   0.789   7.680  12.106  2.5357  1.3592 -2.2568
 6052SOL    HW219598   0.745   7.813  12.162 -0.7231 -0.5389  0.0167
 6053SOL     OW19599   7.416   7.860   0.983  0.7544 -0.8543 -0.0207
 6053SOL    HW119600   7.374   7.869   0.898  0.7276 -0.2252  0.0541
 6053SOL    HW219601   7.499   7.815   0.964  0.2442 -1.7143 -0.2198
 6054SOL     OW19602   7.842   5.835  12.348  0.5420 -0.3731 -0.3871
 6054SOL    HW119603   7.749   5.847  12.369  0.7561 -0.2434  0.5442
 6054SOL    HW219604   7.844   5.822  12.254 -0.4465 -0.5827 -0.3903
 6055SOL     OW19605   0.825   7.442  10.228  0.2387 -0.2967  0.1429
 6055SOL    HW119606   0.769   7.372  10.195 -0.2769 -0.4137  1.2431
 6055SOL    HW219607   0.793   7.460  10.316  1.8009 -0.2312  0.7359
 6056SOL     OW19608   1.170   7.828  11.217 -0.0126 -0.0580 -0.1950
 6056SOL    HW119609   1.096   7.801  11.273 -1.0161  0.9949 -0.9712
 6056SOL    HW219610   1.192   7.749  11.168  1.1871 -1.1404  1.9477
 6057SOL     OW19611   0.601   0.214  11.694 -0.0861 -0.0734 -0.7507
 6057SOL    HW119612   0.676   0.192  11.749 -0.2516  1.7474  0.2625
 6057SOL    HW219613   0.546   0.136  11.696  1.5198 -1.2729 -1.1258
 6058SOL     OW19614   7.474   6.654   0.395 -0.1734 -0.6006  0.0823
 6058SOL    HW119615   7.382   6.659   0.421 -0.1620 -0.7882  0.1539
 6058SOL    HW219616   7.523   6.670   0.476 -0.1436  0.6307 -0.1592
 6059SOL     OW19617   1.418   0.161  11.103 -0.1657  0.5058  0.2724
 6059SOL    HW119618   1.461   0.171  11.018  0.2480 -0.3355  0.3726
 6059SOL    HW219619   1.431   0.069  11.126 -1.3491  0.4138  0.6689
 6060SOL     OW19620   7.895   6.758  11.998 -0.1100  0.2696  0.7773
 6060SOL    HW119621   7.965   6.806  12.041 -0.1394 -0.6434  1.8993
 6060SOL    HW219622   7.916   6.666  12.014 -1.9829 -0.0113  1.8598
 6061SOL     OW19623   2.259   6.472  10.972 -0.0674 -0.3775  0.8693
 6061SOL    HW119624   2.282   6.518  11.052  0.0052 -1.3042  1.4040
 6061SOL    HW219625   2.320   6.504  10.906  0.4021 -0.1913  1.3897
 6062SOL     OW19626   0.955   7.815   0.307  0.5880  0.1069 -0.0560
 6062SOL    HW119627   0.962   7.749   0.238  0.6595  0.0232  0.0316
 6062SOL    HW219628   0.863   7.841   0.305  0.0785 -1.4232  1.2283
 6063SOL     OW19629   2.262   6.618   0.008  0.1025 -0.1139 -0.1895
 6063SOL    HW119630   2.310   6.561   0.069  2.2392  1.3643 -0.4017
 6063SOL    HW219631   2.179   6.636   0.052  0.5800 -1.0464  1.1525
 6064SOL     OW19632   0.332   6.913   0.077  0.3026  0.4341 -0.0348
 6064SOL    HW119633   0.348   6.962  -0.003  0.6055  1.2184  0.4917
 6064SOL    HW219634   0.387   6.956   0.143  0.6533 -0.6673  0.4313
 6065SOL     OW19635   1.892   6.964   0.740 -0.1622  0.2510 -0.7681
 6065SOL    HW119636   1.929   7.051   0.753  0.7644 -0.1246 -0.8476
 6065SOL    HW219637   1.913   6.917   0.821 -0.4311  0.0183 -0.8332
 6066SOL     OW19638   0.048   7.830   0.126  0.2853  0.5935 -0.3413
 6066SOL    HW119639   0.016   7.805   0.040 -1.0384 -0.6739  0.4690
 6066SOL    HW219640  -0.017   7.795   0.187  0.6651  2.2897  1.1385
 6067SOL     OW19641   1.178   6.990  12.344  0.3483  0.6569  0.1988
 6067SOL    HW119642   1.158   7.050  12.272 -1.1100  1.8184  1.5110
 6067SOL    HW219643   1.137   6.908  12.319  1.2426  0.5501 -1.0176
 6068SOL     OW19644   1.452   5.726   0.086  0.4014  0.3292 -0.1461
 6068SOL    HW119645   1.438   5.696  -0.004 -2.5503 -1.1828  0.7013
 6068SOL    HW219646   1.496   5.652   0.129  0.1366  0.3026  0.0811
 6069SOL     OW19647   7.249   6.700  11.390  0.3497  0.1764 -0.3823
 6069SOL    HW119648   7.229   6.655  11.473  2.3730 -0.2312 -0.0543
 6069SOL    HW219649   7.329   6.749  11.408 -0.3834  1.8877 -1.5043
 6070SOL     OW19650   2.519   7.149  11.413 -0.6082  0.1489 -0.2552
 6070SOL    HW119651   2.529   7.217  11.480  1.9463  1.0475 -1.4309
 6070SOL    HW219652   2.471   7.079  11.457  0.1128  1.1131  2.2090
 6071SOL     OW19653   1.161   0.877   9.918 -0.0744 -0.6247 -0.0313
 6071SOL    HW119654   1.084   0.854   9.865  0.0897 -0.7046 -0.2384
 6071SOL    HW219655   1.195   0.956   9.876  0.5471 -1.1629 -0.5677
 6072SOL     OW19656   0.566   7.897  10.924 -0.0906 -0.1427 -0.2701
 6072SOL    HW119657   0.472   7.915  10.922 -0.0302  0.1981 -2.3619
 6072SOL    HW219658   0.580   7.833  10.854  1.2847  0.1848 -0.3342
 6073SOL     OW19659   1.144   5.229   0.172 -0.7082  0.5727 -0.3096
 6073SOL    HW119660   1.125   5.141   0.139 -0.4774 -0.6944  2.6520
 6073SOL    HW219661   1.240   5.235   0.169 -0.7495  0.9932 -1.0646
 6074SOL     OW19662   6.431   6.803   0.934  0.1365  0.2355  0.1109
 6074SOL    HW119663   6.428   6.743   1.009  0.4879  1.6442  1.3120
 6074SOL    HW219664   6.495   6.869   0.960 -1.0119  1.7156 -0.6867
 6075SOL     OW19665   7.509   0.165  10.440  0.4552  0.0859 -0.2336
 6075SOL    HW119666   7.603   0.161  10.456  0.3255  0.9117  0.8883
 6075SOL    HW219667   7.493   0.255  10.410 -0.3842  1.1575  2.9880
 6076SOL     OW19668   0.882   0.466  11.062  0.5458 -0.0635 -0.0107
 6076SOL    HW119669   0.869   0.549  11.108 -2.3843 -1.3183  1.7353
 6076SOL    HW219670   0.908   0.405  11.131  1.2514 -0.9404 -1.0149
 6077SOL     OW19671   0.219   6.666   0.055 -0.5222 -0.7107  0.2151
 6077SOL    HW119672   0.274   6.742   0.077 -1.3328 -0.4107  1.3303
 6077SOL    HW219673   0.222   6.660  -0.040  1.2208 -0.5455  0.2283
 6078SOL     OW19674   0.602   1.240  10.023  0.4787 -0.0816 -0.1869
 6078SOL    HW119675   0.619   1.334  10.017 -0.2840  0.1249  0.6964
 6078SOL    HW219676   0.651   1.212  10.100  0.1195 -0.2709 -0.0254
 6079SOL     OW19677   0.702   5.016   0.559  0.1877 -0.1089  0.1624
 6079SOL    HW119678   0.782   5.022   0.508 -0.9354  1.9260 -1.5040
 6079SOL    HW219679   0.636   4.984   0.497 -0.6392 -0.2755  1.0874
 6080SOL     OW19680   7.743   0.468   0.083  0.0919  0.5547  0.1262
 6080SOL    HW119681   7.652   0.442   0.071  1.1167 -2.4599 -3.1602
 6080SOL    HW219682   7.767   0.433   0.169 -1.4185 -0.1761  0.2888
 6081SOL     OW19683   0.706   7.667   0.697 -0.0610  0.5089  0.0527
 6081SOL    HW119684   0.801   7.654   0.703 -0.1296  0.0969  0.2892
 6081SOL    HW219685   0.669   7.592   0.744 -0.5340 -0.1155 -1.2597
 6082SOL     OW19686   1.475   7.223   0.560  0.1123  0.1990 -0.2514
 6082SOL    HW119687   1.485   7.171   0.640 -0.3619  0.5117  0.0120
 6082SOL    HW219688   1.387   7.260   0.565 -0.9422 -1.8413 -2.1498
 6083SOL     OW19689   7.518   7.095  10.896  0.2455 -0.2020 -0.4532
 6083SOL    HW119690   7.504   7.173  10.950  0.7225  0.3304 -1.0962
 6083SOL    HW219691   7.430   7.072  10.866  0.2750  1.1155 -1.6642
 6084SOL     OW19692   0.034   0.264  11.846  0.1221  0.1995 -0.4466
 6084SOL    HW119693   0.036   0.177  11.806 -0.0167 -0.0972  0.1669
 6084SOL    HW219694   0.092   0.257  11.922 -1.0917  0.1536  0.5258
 6085SOL     OW19695   0.056   7.131  12.359  0.6945 -0.1207  0.0639
 6085SOL    HW119696   0.015   7.157  12.442  2.2673  0.4351  0.7063
 6085SOL    HW219697   0.102   7.209  12.329  0.8088 -0.5531 -0.9219
 6086SOL     OW19698   1.456   7.891  11.226  0.3634 -0.0373  0.0261
 6086SOL    HW119699   1.476   7.844  11.306 -0.2301  0.3129  0.3889
 6086SOL    HW219700   1.366   7.866  11.205  0.2776  0.4023 -0.1485
 6087SOL     OW19701   1.912   5.901   0.327  0.0335 -0.5547 -0.3120
 6087SOL    HW119702   1.997   5.944   0.338 -0.1701 -0.5113  1.2576
 6087SOL    HW219703   1.861   5.963   0.276  0.9745 -0.6458 -1.4130
 6088SOL     OW19704   0.829   7.109  12.357 -0.1491  0.0746  0.3725
 6088SOL    HW119705   0.758   7.045  12.362 -0.0411 -0.0842 -0.1430
 6088SOL    HW219706   0.836   7.143  12.446 -1.9181  1.2373  0.1098
 6089SOL     OW19707   2.117   6.584  12.273 -0.0554 -0.2139 -0.1358
 6089SOL    HW119708   2.156   6.601  12.358  1.7349  0.1454 -0.9910
 6089SOL    HW219709   2.171   6.633  12.211  0.4643 -2.7278 -1.8047
 6090SOL     OW19710   1.646   7.284  11.111  0.0017 -0.5915 -0.1820
 6090SOL    HW119711   1.616   7.294  11.202 -0.5892 -1.2012 -0.3065
 6090SOL    HW219712   1.570   7.303  11.058  0.1152 -1.0816 -0.5292
 6091SOL     OW19713   1.068   5.859  12.393 -0.0876  0.0842  0.2260
 6091SOL    HW119714   0.983   5.845  12.433  0.4833 -1.1663  1.0367
 6091SOL    HW219715   1.053   5.847  12.299 -0.7945 -0.0953  0.3592
 6092SOL     OW19716   0.828   7.450  11.264  0.4795 -0.0158 -0.4617
 6092SOL    HW119717   0.740   7.448  11.226  1.0715  0.5677 -1.9448
 6092SOL    HW219718   0.834   7.369  11.316 -0.4702 -0.7083 -1.3884
 6093SOL     OW19719   2.705   7.219  10.983 -0.2051 -0.2787 -0.0298
 6093SOL    HW119720   2.787   7.261  11.009 -0.3379  1.9121 -2.7015
 6093SOL    HW219721   2.637   7.275  11.020 -0.4068  0.5593 -1.5983
 6094SOL     OW19722   0.694   1.369   0.095 -0.0321  0.5139  0.2443
 6094SOL    HW119723   0.669   1.424   0.169  1.5539  0.3695  0.9266
 6094SOL    HW219724   0.739   1.295   0.134 -0.0679 -0.0934 -0.8166
 6095SOL     OW19725   1.706   7.067  11.839 -0.1823  0.2473 -0.3193
 6095SOL    HW119726   1.727   7.033  11.926  1.9000  1.7656 -0.1525
 6095SOL    HW219727   1.638   7.132  11.854  0.0117  0.3429  0.1387
 6096SOL     OW19728   1.506   6.923  11.648 -0.0067 -0.3037 -0.2690
 6096SOL    HW119729   1.584   6.901  11.597  1.0611  2.9546 -0.2398
 6096SOL    HW219730   1.537   6.928  11.738 -0.6403 -0.5999 -0.0290
 6097SOL     OW19731   1.440   0.951   1.638  0.2453  0.0527 -0.3184
 6097SOL    HW119732   1.533   0.941   1.659  0.0823 -2.2670 -0.4963
 6097SOL    HW219733   1.422   0.883   1.574 -1.8928 -0.5203  0.7910
 6098SOL     OW19734   2.448   1.242   1.154  0.4054  0.3965  0.4105
 6098SOL    HW119735   2.359   1.207   1.167 -0.1490  1.4399 -0.4514
 6098SOL    HW219736   2.435   1.321   1.103  1.9325  0.0290 -0.5945
 6099SOL     OW19737   2.323   2.057  12.203  0.0286 -0.3992  0.3084
 6099SOL    HW119738   2.300   1.974  12.161 -1.1977 -0.0806  0.3335
 6099SOL    HW219739   2.376   2.103  12.138 -2.3588  0.3638 -1.1869
 6100SOL     OW19740   3.964   0.072  11.703 -0.0894  0.1571 -0.0797
 6100SOL    HW119741   3.906   0.021  11.759 -0.8540 -0.7596 -1.6199
 6100SOL    HW219742   4.039   0.092  11.758 -0.6718 -0.9424  1.1802
 6101SOL     OW19743   1.375   7.917  12.036 -0.2467  0.3265 -0.0997
 6101SOL    HW119744   1.467   7.903  12.059 -0.0552  0.0632 -0.9934
 6101SOL    HW219745   1.326   7.879  12.108  0.3421 -0.1853  0.0343
 6102SOL     OW19746   2.492   5.855   2.527  0.0228  0.4053  0.0493
 6102SOL    HW119747   2.574   5.844   2.575  0.4139  2.5229 -0.0718
 6102SOL    HW219748   2.519   5.878   2.438 -0.7011  0.6526 -0.1142
 6103SOL     OW19749   3.366   0.869   1.884  0.6723  0.6468  0.3897
 6103SOL    HW119750   3.324   0.805   1.942 -0.7257  0.6261 -0.6001
 6103SOL    HW219751   3.431   0.818   1.836  1.0791  0.4388  1.1428
 6104SOL     OW19752   2.989   1.283   1.976  0.2937 -0.0391  0.3677
 6104SOL    HW119753   3.069   1.232   1.991 -0.8940 -1.6841  1.5482
 6104SOL    HW219754   2.990   1.303   1.883  1.9566 -0.2076  0.3190
 6105SOL     OW19755   1.203   2.261   2.700  0.3494  0.2113 -0.2476
 6105SOL    HW119756   1.266   2.232   2.635  1.4446 -0.0046  0.8664
 6105SOL    HW219757   1.219   2.354   2.710  0.4361  0.1721 -0.0210
 6106SOL     OW19758   2.855   1.353   0.703  0.1951  0.5605 -0.0033
 6106SOL    HW119759   2.795   1.427   0.706  0.1266  0.5048  0.0142
 6106SOL    HW219760   2.867   1.328   0.795  1.1076  1.2591  0.0844
 6107SOL     OW19761   1.200   0.308   1.496  0.3086 -0.2430  0.2840
 6107SOL    HW119762   1.148   0.242   1.543 -0.1997 -1.2211 -1.5212
 6107SOL    HW219763   1.205   0.274   1.406  0.6825  1.8309 -0.5371
 6108SOL     OW19764   1.872   7.990   1.361 -0.5729  0.3376  0.0258
 6108SOL    HW119765   1.956   8.034   1.369 -1.3160  2.3689 -2.2137
 6108SOL    HW219766   1.883   7.930   1.287 -1.1154  0.6932 -0.3462
 6109SOL     OW19767   3.123   1.530   1.538  0.2539  0.2109  0.2669
 6109SOL    HW119768   3.147   1.585   1.612 -1.1960 -0.1833  1.0632
 6109SOL    HW219769   3.038   1.563   1.509  1.7523  1.8823 -2.7779
 6110SOL     OW19770   2.878   2.639   1.378 -0.5006  0.4753 -0.2075
 6110SOL    HW119771   2.874   2.639   1.282  0.8695 -0.7947 -0.2926
 6110SOL    HW219772   2.968   2.662   1.398 -0.6837  0.3546  0.7891
 6111SOL     OW19773   0.945   0.637   0.935 -0.3007  0.1881 -0.6680
 6111SOL    HW119774   1.032   0.650   0.897  0.1615 -0.6157  0.0672
 6111SOL    HW219775   0.885   0.667   0.867  0.5532  1.3663 -0.9426
 6112SOL     OW19776   1.965   1.033   0.935  0.1886  0.0430  0.4178
 6112SOL    HW119777   1.902   0.972   0.973  0.2266  0.1466  0.6483
 6112SOL    HW219778   2.000   0.986   0.859  0.3566 -0.2993  0.7031
 6113SOL     OW19779   1.347   2.567  12.237 -0.1828 -0.3825 -0.9546
 6113SOL    HW119780   1.319   2.630  12.170 -1.5145  1.4726  1.2342
 6113SOL    HW219781   1.419   2.610  12.282 -0.7128 -0.6573  0.1953
 6114SOL     OW19782   2.102   0.279   0.447  0.0380  0.1775  0.1492
 6114SOL    HW119783   2.160   0.220   0.494  1.3284 -0.3107 -1.9409
 6114SOL    HW219784   2.142   0.365   0.456 -1.5570  0.7259  2.7436
 6115SOL     OW19785   4.484   7.513   1.870 -0.2476  0.0894  0.0948
 6115SOL    HW119786   4.426   7.575   1.825  1.1742  0.4983 -1.2596
 6115SOL    HW219787   4.571   7.551   1.862  0.4411 -1.3046  0.6496
 6116SOL     OW19788   1.000   1.445   1.149 -0.0221 -0.6202 -0.1709
 6116SOL    HW119789   1.058   1.517   1.123 -1.2011  0.0664 -0.9816
 6116SOL    HW219790   1.004   1.445   1.245  0.5017  0.0978 -0.1791
 6117SOL     OW19791   4.061   1.720   0.887  0.1009 -0.1099 -0.5390
 6117SOL    HW119792   4.001   1.711   0.961  1.7712 -0.0265  0.8731
 6117SOL    HW219793   4.133   1.774   0.920  2.4963 -2.7044 -1.1652
 6118SOL     OW19794   1.102   1.390  12.376 -0.2272 -0.0064 -0.6616
 6118SOL    HW119795   1.136   1.478  12.393  0.9333 -0.4327 -0.6472
 6118SOL    HW219796   1.169   1.332  12.411 -2.3787 -0.9677  2.2156
 6119SOL     OW19797   2.363   0.622  12.429 -0.1871  0.4813 -0.0170
 6119SOL    HW119798   2.400   0.689  12.486 -1.3242  0.4378  0.8151
 6119SOL    HW219799   2.326   0.557  12.489 -0.2437 -0.2422 -0.8063
 6120SOL     OW19800   2.460   1.498   0.130 -0.1795  0.1579 -0.6775
 6120SOL    HW119801   2.480   1.405   0.136  0.1067  0.1815 -1.1724
 6120SOL    HW219802   2.365   1.503   0.138 -0.0505  0.0217  1.4780
 6121SOL     OW19803   3.622   1.115   1.949 -0.2830 -0.4949 -0.2040
 6121SOL    HW119804   3.554   1.074   2.003 -1.9230  0.5882 -1.3335
 6121SOL    HW219805   3.704   1.090   1.990 -1.3846 -1.3584  1.5927
 6122SOL     OW19806   1.807   0.995  12.479  0.2338 -0.6146  0.6632
 6122SOL    HW119807   1.848   0.972  12.563  0.9552  0.9193  0.7732
 6122SOL    HW219808   1.868   0.961  12.413  2.0524  2.0346  0.8250
 6123SOL     OW19809   1.528   2.368   1.379 -0.3734  0.0668  0.1678
 6123SOL    HW119810   1.496   2.302   1.441 -1.9018 -0.7162 -1.3787
 6123SOL    HW219811   1.457   2.432   1.374  0.7718  1.4793  1.0512
 6124SOL     OW19812   2.864   7.818   0.667 -0.0013 -0.5164 -0.0987
 6124SOL    HW119813   2.830   7.833   0.755  0.7726 -0.9072  0.2802
 6124SOL    HW219814   2.794   7.847   0.609  0.8151  3.1857  0.5480
 6125SOL     OW19815   1.573   7.118   0.174 -0.3296 -0.2803  0.1466
 6125SOL    HW119816   1.566   7.203   0.218 -0.1948  0.2961 -0.8932
 6125SOL    HW219817   1.534   7.056   0.235 -1.1496  0.6492  0.6102
 6126SOL     OW19818   2.086   0.899   2.377  0.2199 -0.4364 -0.3324
 6126SOL    HW119819   2.008   0.843   2.374  0.4937 -0.7968 -1.0437
 6126SOL    HW219820   2.153   0.848   2.332  0.4899  0.4517 -0.9621
 6127SOL     OW19821   2.825   0.849   2.703 -0.2115  0.0141 -0.2921
 6127SOL    HW119822   2.833   0.812   2.615  2.2384 -1.3940  0.4339
 6127SOL    HW219823   2.901   0.906   2.712 -1.4889  1.7133  0.2757
 6128SOL     OW19824   3.216   0.498   2.627 -0.0521 -0.0059 -0.4009
 6128SOL    HW119825   3.182   0.587   2.641  0.3011  0.2647 -1.2245
 6128SOL    HW219826   3.179   0.471   2.543  0.7494 -0.1977 -0.6982
 6129SOL     OW19827   0.832   1.076   0.794  0.1063  0.1170 -0.2041
 6129SOL    HW119828   0.891   1.146   0.821  0.3170 -0.4342  0.8177
 6129SOL    HW219829   0.745   1.111   0.809  0.2118  0.1546  0.3560
 6130SOL     OW19830   4.204   1.100   0.436  0.0569 -0.5189  0.1831
 6130SOL    HW119831   4.187   1.181   0.484  1.3611  0.0942 -0.3368
 6130SOL    HW219832   4.215   1.128   0.345  0.4831 -1.2912 -0.0115
 6131SOL     OW19833   2.093   0.943   2.089 -0.2753  0.6877 -0.1626
 6131SOL    HW119834   2.079   0.977   2.178  1.8654  0.0289  0.4854
 6131SOL    HW219835   2.161   0.877   2.099 -1.2596 -0.7162 -2.0533
 6132SOL     OW19836   2.111   2.201   0.087 -0.6038  0.3441 -0.1152
 6132SOL    HW119837   2.199   2.233   0.110 -0.8264 -0.0122  1.3502
 6132SOL    HW219838   2.063   2.202   0.170 -1.7056 -0.3541 -0.7264
 6133SOL     OW19839   3.903   0.283   1.833 -0.3237  0.6612  0.1472
 6133SOL    HW119840   3.985   0.313   1.795 -0.8767  3.2702  0.8444
 6133SOL    HW219841   3.928   0.219   1.899  1.0303  0.4171 -0.5827
 6134SOL     OW19842   1.704   0.320   1.657 -0.2628 -0.6400 -0.6886
 6134SOL    HW119843   1.711   0.386   1.589 -0.1321  0.2591  0.1800
 6134SOL    HW219844   1.616   0.333   1.694  0.9411  1.3331  1.7315
 6135SOL     OW19845   2.271   0.277   1.491  0.2229 -0.3538  0.1794
 6135SOL    HW119846   2.228   0.295   1.407  0.0222  0.0398  0.3660
 6135SOL    HW219847   2.348   0.225   1.468  0.0431 -0.4397 -0.2285
 6136SOL     OW19848   2.006   1.545   1.166 -0.0200  0.3028 -0.0275
 6136SOL    HW119849   1.952   1.624   1.177  0.0591  0.1826  1.3296
 6136SOL    HW219850   2.096   1.575   1.178  0.1796  0.3234 -1.3563
 6137SOL     OW19851   3.780   7.892  11.853 -0.2060  0.3676 -0.3704
 6137SOL    HW119852   3.688   7.876  11.831 -0.6082  3.0129 -0.8833
 6137SOL    HW219853   3.790   7.856  11.941 -1.3414 -1.1214 -0.8117
 6138SOL     OW19854   7.960   0.924   1.049  0.1988 -0.3953  0.1288
 6138SOL    HW119855   7.986   1.008   1.087  0.7365 -0.8842  0.8541
 6138SOL    HW219856   7.911   0.881   1.119  1.1935 -1.3050  0.2875
 6139SOL     OW19857   0.667   0.394   0.314 -0.4177 -0.5406 -0.2706
 6139SOL    HW119858   0.710   0.436   0.389  1.1802  0.7981 -1.8447
 6139SOL    HW219859   0.706   0.307   0.310  0.3270 -0.2185 -0.1854
 6140SOL     OW19860   1.971   1.367   2.731 -0.0482  0.3521  0.4181
 6140SOL    HW119861   2.053   1.375   2.779 -0.3625  1.0347  0.8424
 6140SOL    HW219862   1.981   1.286   2.681  0.2928 -0.3676  1.6080
 6141SOL     OW19863   2.386   0.982   1.471  0.0792 -0.2226 -0.7382
 6141SOL    HW119864   2.389   1.032   1.553 -0.3059 -1.9555  0.3728
 6141SOL    HW219865   2.469   1.003   1.427  0.7077  0.0137  0.5263
 6142SOL     OW19866   2.891   1.206   0.950  0.1429  0.1706 -0.0580
 6142SOL    HW119867   2.918   1.122   0.988  0.2957  0.0031 -0.5301
 6142SOL    HW219868   2.796   1.207   0.957  0.1539  0.0352  0.1065
 6143SOL     OW19869   0.551   7.397   1.236  0.0343 -0.6041 -0.6200
 6143SOL    HW119870   0.488   7.340   1.279 -0.8555 -0.1186 -1.2476
 6143SOL    HW219871   0.507   7.426   1.156  0.1916  1.4415 -0.0286
 6144SOL     OW19872   2.000   1.532   0.490 -0.2390 -0.1054  0.3257
 6144SOL    HW119873   2.092   1.505   0.490 -0.2963 -0.3480  1.7458
 6144SOL    HW219874   1.959   1.476   0.424  0.6247  0.0123 -0.3303
 6145SOL     OW19875   1.632   1.623  12.398 -0.3374  0.0722  0.4087
 6145SOL    HW119876   1.706   1.683  12.404 -0.9985  1.0357 -0.7308
 6145SOL    HW219877   1.612   1.617  12.305 -1.4241 -0.5183  0.6588
 6146SOL     OW19878   2.492   2.273   1.180 -0.1335  0.0887 -0.1748
 6146SOL    HW119879   2.402   2.253   1.154  0.3257 -0.9729 -1.0720
 6146SOL    HW219880   2.546   2.226   1.116  1.0641  1.0191  0.1094
 6147SOL     OW19881   2.419   1.021   2.224 -0.1968 -0.0113 -0.8840
 6147SOL    HW119882   2.363   1.086   2.181 -0.5614 -0.7656 -1.5797
 6147SOL    HW219883   2.408   0.942   2.172  1.4196 -0.2320 -0.9451
 6148SOL     OW19884   0.047   6.324   1.794 -0.2482  0.5955 -0.9681
 6148SOL    HW119885   0.132   6.369   1.784  0.2495 -0.5166 -1.9298
 6148SOL    HW219886   0.070   6.236   1.822 -1.2431  0.9949  1.3048
 6149SOL     OW19887   1.038   2.882   2.790  0.1094  0.0025  0.4411
 6149SOL    HW119888   0.975   2.907   2.858 -0.0135  1.4269 -0.1639
 6149SOL    HW219889   1.105   2.950   2.794 -0.3325  0.5979 -1.4032
 6150SOL     OW19890   2.986   3.402   1.420 -0.2013  0.1669 -0.3441
 6150SOL    HW119891   2.904   3.353   1.412 -0.0177  0.1049 -2.1232
 6150SOL    HW219892   3.028   3.393   1.335  2.3583 -1.0096  0.9278
 6151SOL     OW19893   2.142   6.741   0.710  0.4444  0.0026 -0.6676
 6151SOL    HW119894   2.231   6.728   0.678  0.8428  1.0709 -0.0318
 6151SOL    HW219895   2.149   6.731   0.805 -0.3312 -1.0057 -0.6956
 6152SOL     OW19896   3.354   2.623   0.243 -0.0621  0.0835 -0.5958
 6152SOL    HW119897   3.351   2.569   0.164 -1.7633 -0.0997 -0.4316
 6152SOL    HW219898   3.305   2.573   0.308 -1.6245  1.7602 -0.4197
 6153SOL     OW19899   2.079   1.132  12.321  0.3232 -0.3344  0.0974
 6153SOL    HW119900   2.040   1.203  12.272  0.1841  0.6846  1.6307
 6153SOL    HW219901   2.020   1.057  12.307 -0.0750  0.1188 -0.6958
 6154SOL     OW19902   1.813   0.899   1.487  0.4647  0.1825 -0.0236
 6154SOL    HW119903   1.789   0.827   1.545 -0.0133  0.6326  0.3561
 6154SOL    HW219904   1.909   0.901   1.489  0.4808 -0.5505 -0.1794
 6155SOL     OW19905   0.407   0.983   1.060 -0.1522  0.1351 -0.0896
 6155SOL    HW119906   0.488   0.954   1.103  0.8296 -0.4857 -2.1843
 6155SOL    HW219907   0.352   0.905   1.058  0.7409 -0.5161 -1.8891
 6156SOL     OW19908   4.266   7.444   0.643  0.0264 -0.7804  0.1610
 6156SOL    HW119909   4.296   7.392   0.717  1.3503 -0.6250 -0.2303
 6156SOL    HW219910   4.221   7.382   0.586 -0.5824 -0.9908  0.8547
 6157SOL     OW19911   1.362   1.733   0.015  0.0648  0.5074 -0.2569
 6157SOL    HW119912   1.314   1.739  -0.068  0.7979  3.7719 -0.5647
 6157SOL    HW219913   1.415   1.653   0.006 -2.2093 -0.9843 -1.5375
 6158SOL     OW19914   3.582   0.397   2.018 -0.0968 -0.0948  0.3604
 6158SOL    HW119915   3.670   0.400   2.054 -0.6306  1.8988  1.6590
 6158SOL    HW219916   3.575   0.474   1.962 -0.4038 -1.3081 -1.3230
 6159SOL     OW19917   0.881   0.119  10.933 -0.2748 -0.4822  0.4178
 6159SOL    HW119918   0.891   0.034  10.888 -0.9476  0.2139 -1.1236
 6159SOL    HW219919   0.956   0.123  10.993 -0.4658 -2.3488  0.8469
 6160SOL     OW19920   3.934   0.329   2.248 -0.0764 -0.3332 -0.4781
 6160SOL    HW119921   3.936   0.384   2.170  1.4831  0.0245 -0.2123
 6160SOL    HW219922   3.842   0.301   2.255 -0.4164  0.3218 -1.9328
 6161SOL     OW19923   3.516   7.798   1.805  0.1491 -0.4087  0.1661
 6161SOL    HW119924   3.428   7.792   1.842 -0.1454 -1.0181 -0.5928
 6161SOL    HW219925   3.571   7.746   1.863 -0.3753 -1.6662 -0.4215
 6162SOL     OW19926   2.881   0.847   1.488  0.0158  0.3409  0.2398
 6162SOL    HW119927   2.909   0.922   1.435  0.0984 -0.1518 -0.4297
 6162SOL    HW219928   2.799   0.876   1.528 -0.8676  0.2109 -1.3753
 6163SOL     OW19929   1.922   0.875   0.668  0.3001  0.1910  0.4727
 6163SOL    HW119930   1.828   0.861   0.683 -0.1825  1.8046 -0.7951
 6163SOL    HW219931   1.945   0.809   0.603 -0.6233  1.4608 -1.2236
 6164SOL     OW19932   3.791   2.076   2.056 -0.0878 -0.7660  0.4687
 6164SOL    HW119933   3.826   2.112   1.975  1.6826  0.0516  1.5393
 6164SOL    HW219934   3.697   2.064   2.038  0.6222 -2.9076 -2.4569
 6165SOL     OW19935   2.482   1.416   1.380  0.4106 -0.3792 -0.1083
 6165SOL    HW119936   2.489   1.360   1.302  0.1598  1.1253 -1.2754
 6165SOL    HW219937   2.480   1.505   1.344 -0.3356  0.3261  1.6021
 6166SOL     OW19938   2.707   7.573   0.873 -0.1384  0.3340  0.1942
 6166SOL    HW119939   2.679   7.524   0.950  0.7110  0.1234  0.3762
 6166SOL    HW219940   2.730   7.660   0.906  1.0583 -0.0209  0.3291
 6167SOL     OW19941   0.556   7.764  12.442  0.2871 -0.8307 -0.1924
 6167SOL    HW119942   0.580   7.676  12.469  0.4008 -0.1491  2.2667
 6167SOL    HW219943   0.466   7.775  12.473  0.7710  0.3625  0.8943
 6168SOL     OW19944   2.234   0.507   0.527  0.3083 -0.5517 -0.4168
 6168SOL    HW119945   2.246   0.580   0.465 -1.2384 -0.3087 -0.4785
 6168SOL    HW219946   2.323   0.477   0.546  1.0251  1.5584 -0.1457
 6169SOL     OW19947   0.622   7.943   1.275  0.0062  0.6752 -0.8237
 6169SOL    HW119948   0.567   7.956   1.198  3.8452 -0.0994 -4.0200
 6169SOL    HW219949   0.625   7.848   1.286  1.4463  0.6426 -1.3575
 6170SOL     OW19950   1.998   2.711   1.999 -0.0435  0.3195 -0.2670
 6170SOL    HW119951   1.984   2.803   1.976 -3.9049  0.5945  2.1561
 6170SOL    HW219952   2.001   2.711   2.095 -2.9485 -2.1981 -0.0125
 6171SOL     OW19953   2.903   2.648  11.940  0.3066 -0.6844  0.0817
 6171SOL    HW119954   2.964   2.713  11.974  0.8855 -0.8387 -0.6432
 6171SOL    HW219955   2.858   2.693  11.868 -0.1282 -0.7115  0.3336
 6172SOL     OW19956   1.212   1.711  12.296 -0.0501  0.2479  0.3492
 6172SOL    HW119957   1.120   1.740  12.290 -0.7633 -1.7106  1.0011
 6172SOL    HW219958   1.226   1.660  12.217 -0.4241 -1.7073  1.4770
 6173SOL     OW19959   2.153   1.061   1.167 -0.1601 -0.0970 -0.1227
 6173SOL    HW119960   2.102   1.056   1.087 -0.8423  3.0992 -0.0027
 6173SOL    HW219961   2.095   1.102   1.231  1.3866  0.3348  1.0824
 6174SOL     OW19962   2.228   2.261   2.148  0.1732 -0.3060  0.1477
 6174SOL    HW119963   2.242   2.261   2.242 -0.2260  3.3707  0.3720
 6174SOL    HW219964   2.134   2.281   2.138  0.0420 -1.4195 -1.0542
 6175SOL     OW19965   1.934   7.276   1.922 -0.2078 -0.1857 -0.0753
 6175SOL    HW119966   2.005   7.254   1.862  1.4930  0.0673  1.7289
 6175SOL    HW219967   1.904   7.192   1.958  0.1419 -0.2000  0.1864
 6176SOL     OW19968   2.941   1.259  12.009  0.0292 -0.2493 -0.2474
 6176SOL    HW119969   2.899   1.181  12.045  0.7006 -0.0607  1.0310
 6176SOL    HW219970   3.015   1.226  11.959  1.4897 -0.4409  1.8828
 6177SOL     OW19971   1.751   7.675  11.561 -0.4175 -0.3153  0.1894
 6177SOL    HW119972   1.782   7.642  11.646 -0.2923 -1.2011 -0.1897
 6177SOL    HW219973   1.825   7.725  11.527 -0.2547 -0.4528  0.3357
 6178SOL     OW19974   2.814   2.514   0.751  0.3101 -0.3975  0.3509
 6178SOL    HW119975   2.791   2.479   0.666 -0.6384 -0.2144  0.5236
 6178SOL    HW219976   2.857   2.442   0.797  0.0144 -0.7709  0.0413
 6179SOL     OW19977   2.958   0.114   0.823 -0.8343  0.0379  0.0170
 6179SOL    HW119978   2.901   0.048   0.863  2.4396 -1.6613  2.3381
 6179SOL    HW219979   3.012   0.146   0.895  1.1733  1.4979 -2.0087
 6180SOL     OW19980   5.049   7.650   0.288 -0.2775 -0.7426 -0.3371
 6180SOL    HW119981   4.976   7.710   0.273 -0.6696 -0.7311  1.4715
 6180SOL    HW219982   5.079   7.669   0.377  1.8017 -0.9100 -0.9488
 6181SOL     OW19983   1.265   2.070  12.379  0.0242 -0.1231 -0.0527
 6181SOL    HW119984   1.338   2.076  12.441  0.8815  0.2995 -1.0719
 6181SOL    HW219985   1.229   1.983  12.392  1.1733 -0.6092 -0.0293
 6182SOL     OW19986   4.292   1.683   0.276  0.4295  0.3725 -0.8440
 6182SOL    HW119987   4.299   1.720   0.364  1.1613 -1.3461 -0.1297
 6182SOL    HW219988   4.201   1.698   0.251  0.7750  2.9979 -0.8093
 6183SOL     OW19989   3.370   0.285   0.939 -0.0199  0.1043  0.5190
 6183SOL    HW119990   3.296   0.332   0.977  0.0641  0.0636  0.7402
 6183SOL    HW219991   3.407   0.237   1.013  0.1931  0.0822  0.3980
 6184SOL     OW19992   0.839   1.346  11.763 -0.5915  0.0070 -0.0536
 6184SOL    HW119993   0.871   1.333  11.853 -1.6184  1.8276  0.6265
 6184SOL    HW219994   0.781   1.272  11.748  0.2724 -0.7949  0.4410
 6185SOL     OW19995   3.562   0.756   1.553  0.3157 -0.8336 -0.1521
 6185SOL    HW119996   3.470   0.730   1.553 -0.6480  2.0439 -2.5060
 6185SOL    HW219997   3.562   0.847   1.584  2.3759 -0.7715 -0.1357
 6186SOL     OW19998   2.012   1.443   2.199  0.4141  0.3037 -0.0746
 6186SOL    HW119999   1.991   1.421   2.290  1.6291 -0.1770  0.1040
 6186SOL    HW220000   2.001   1.360   2.152  2.4038 -0.1231  0.1299
 6187SOL     OW20001   2.219   1.579   1.476  0.4954 -0.4001  0.2838
 6187SOL    HW120002   2.230   1.528   1.556  3.9091  0.7870  0.7502
 6187SOL    HW220003   2.193   1.666   1.506  0.8429 -0.2054  0.0339
 6188SOL     OW20004   1.853   2.368   0.876 -0.2017  0.7750 -0.7657
 6188SOL    HW120005   1.807   2.446   0.906 -0.3475  0.4757 -0.1931
 6188SOL    HW220006   1.944   2.396   0.865 -0.0520  0.7922  0.3996
 6189SOL     OW20007   3.259   0.877   1.222  0.0030 -0.4678 -0.4584
 6189SOL    HW120008   3.170   0.890   1.190 -0.7687 -1.7118  1.0122
 6189SOL    HW220009   3.304   0.834   1.150 -1.4559 -2.4851 -0.2672
 6190SOL     OW20010   2.072   0.583   2.444 -0.3852 -0.4097  0.2109
 6190SOL    HW120011   2.048   0.501   2.400 -3.7364  0.5034  0.0561
 6190SOL    HW220012   2.008   0.647   2.412  0.0583  1.4881  2.7705
 6191SOL     OW20013   2.236   2.196   0.476  0.3317  0.0447 -0.0461
 6191SOL    HW120014   2.321   2.239   0.482  0.0659  0.5628  0.1127
 6191SOL    HW220015   2.256   2.102   0.476  0.9315  0.1638 -0.5516
 6192SOL     OW20016   2.165   3.757   0.287 -0.0194 -0.3191 -0.0829
 6192SOL    HW120017   2.220   3.679   0.279  0.5167  0.0386  0.0501
 6192SOL    HW220018   2.093   3.731   0.345  0.5790 -0.4877  0.5905
 6193SOL     OW20019   3.854   1.668   1.081 -0.6817 -0.1049  0.1267
 6193SOL    HW120020   3.871   1.597   1.143 -1.0018 -0.3824 -0.0965
 6193SOL    HW220021   3.763   1.656   1.055 -0.4897 -0.1350 -0.5714
 6194SOL     OW20022   2.684   7.983   1.367  0.6775 -0.5326 -0.1072
 6194SOL    HW120023   2.756   8.033   1.405  1.2794 -1.2361 -0.2870
 6194SOL    HW220024   2.726   7.928   1.300 -0.1025 -0.5788 -0.5785
 6195SOL     OW20025   3.795   0.776   1.084 -0.0938  0.2931  0.1380
 6195SOL    HW120026   3.718   0.810   1.038 -0.1766  0.8506  0.6742
 6195SOL    HW220027   3.772   0.784   1.177 -0.0166 -0.9904  0.2887
 6196SOL     OW20028   4.092   0.485   1.446 -0.1026  0.5934 -0.6019
 6196SOL    HW120029   3.996   0.483   1.439 -0.0262  0.2230 -1.5856
 6196SOL    HW220030   4.111   0.430   1.522 -0.6396  0.2265 -0.7242
 6197SOL     OW20031   2.263   1.636   1.216 -0.3197 -0.1855 -0.1334
 6197SOL    HW120032   2.271   1.618   1.310  1.1947 -0.4133 -0.2818
 6197SOL    HW220033   2.305   1.721   1.205  0.5073 -0.6726 -0.7697
 6198SOL     OW20034   1.932   2.363  12.116  0.1271  0.2438 -0.1118
 6198SOL    HW120035   1.958   2.335  12.204  1.3525  1.0294 -0.2060
 6198SOL    HW220036   1.897   2.452  12.129 -0.8793 -0.1220 -0.2488
 6199SOL     OW20037   4.802   6.472   0.349  0.2050 -0.5668  0.3830
 6199SOL    HW120038   4.854   6.440   0.422 -0.7707 -0.5343  1.1139
 6199SOL    HW220039   4.856   6.456   0.272  0.3321 -2.7243  0.8452
 6200SOL     OW20040   1.374   1.906   3.124 -0.0495 -0.2633  0.2649
 6200SOL    HW120041   1.450   1.944   3.079 -0.4504  0.5477  0.2699
 6200SOL    HW220042   1.310   1.977   3.128 -0.4286 -0.6442  1.1655
 6201SOL     OW20043   3.446   1.821   2.360 -0.1535  0.5015 -0.5894
 6201SOL    HW120044   3.436   1.843   2.452 -0.4935 -0.8004 -0.2872
 6201SOL    HW220045   3.479   1.900   2.319  0.3770  0.9795  0.7227
 6202SOL     OW20046   3.017   0.637   0.900 -0.2317 -0.1041 -0.1782
 6202SOL    HW120047   3.041   0.719   0.943 -0.4134 -0.0536 -0.1719
 6202SOL    HW220048   2.922   0.630   0.912  0.0230 -1.3487  1.6681
 6203SOL     OW20049   2.322   2.287   1.473  0.0259 -0.8124 -0.1913
 6203SOL    HW120050   2.275   2.361   1.436 -0.6812 -0.8713  0.5475
 6203SOL    HW220051   2.399   2.277   1.418 -0.5015 -0.3036 -1.0446
 6204SOL     OW20052   3.770   0.216   3.108 -0.8075  0.2575  0.0856
 6204SOL    HW120053   3.677   0.218   3.128 -0.6568  0.6761  0.7821
 6204SOL    HW220054   3.802   0.303   3.133 -0.0648 -0.1839  0.7284
 6205SOL     OW20055   1.797   2.887   0.263 -0.1682  0.0270 -0.2923
 6205SOL    HW120056   1.743   2.864   0.339  1.0442  0.1156  0.6083
 6205SOL    HW220057   1.849   2.961   0.291  0.2180  0.1442 -1.2653
 6206SOL     OW20058   2.483   0.792   0.972 -0.1048 -0.2299  0.1895
 6206SOL    HW120059   2.485   0.877   0.928  0.7529 -0.0727  0.5140
 6206SOL    HW220060   2.419   0.741   0.922 -1.2970  0.8756  0.5228
 6207SOL     OW20061   2.096   0.594   1.288  0.0273 -0.0681  0.3165
 6207SOL    HW120062   2.120   0.582   1.380 -1.0341 -1.5667  0.4331
 6207SOL    HW220063   2.146   0.671   1.260  1.6584 -0.5690  1.6798
 6208SOL     OW20064   0.868   6.825   0.113 -0.3174 -0.0556 -0.4056
 6208SOL    HW120065   0.849   6.914   0.084 -1.2287 -0.1529 -0.1401
 6208SOL    HW220066   0.870   6.830   0.208  0.9547 -0.0729 -0.4192
 6209SOL     OW20067   1.363   0.343   1.013 -0.1269  0.0474  0.4243
 6209SOL    HW120068   1.301   0.390   1.069 -1.4637  2.6418 -2.8923
 6209SOL    HW220069   1.308   0.284   0.962  0.7721 -0.7048  0.2981
 6210SOL     OW20070   2.142   0.142  11.931  0.1625 -0.2650 -0.5971
 6210SOL    HW120071   2.216   0.087  11.958 -1.5321 -2.1042  0.5640
 6210SOL    HW220072   2.124   0.115  11.841  0.6902 -0.0276 -0.7804
 6211SOL     OW20073   2.593   0.232   1.595 -0.4992  0.1150  0.1470
 6211SOL    HW120074   2.658   0.166   1.619 -0.3828  0.2667  0.2521
 6211SOL    HW220075   2.558   0.202   1.511  0.1445  0.3531 -0.2115
 6212SOL     OW20076   3.392   7.712   2.444 -0.1997  0.5335 -0.7178
 6212SOL    HW120077   3.486   7.705   2.432 -0.0513 -2.6287  1.1947
 6212SOL    HW220078   3.364   7.624   2.468 -3.1712  1.9368  1.7374
 6213SOL     OW20079   2.363   0.485   2.267  0.4791  0.1084 -0.3939
 6213SOL    HW120080   2.324   0.414   2.319  1.6678 -1.0850 -1.0436
 6213SOL    HW220081   2.400   0.440   2.191  1.6111  1.3808 -0.6282
 6214SOL     OW20082   4.086   0.529   1.832 -0.7011  0.4191 -0.1573
 6214SOL    HW120083   4.147   0.595   1.866  0.3023  0.2868 -1.6055
 6214SOL    HW220084   4.143   0.461   1.795 -1.7183  0.1217 -1.2360
 6215SOL     OW20085   3.674   0.027   1.748  0.0168  0.0277  0.3155
 6215SOL    HW120086   3.618  -0.050   1.756 -1.7069  1.2756  0.8275
 6215SOL    HW220087   3.758  -0.001   1.786 -0.3966 -1.7197  0.0366
 6216SOL     OW20088   4.260   0.336   2.803 -0.7840  0.0284 -0.3931
 6216SOL    HW120089   4.354   0.343   2.787 -0.3510 -1.4051  1.2161
 6216SOL    HW220090   4.219   0.361   2.720  0.8592  3.6855 -0.2547
 6217SOL     OW20091   3.134   0.915  12.339  0.0909 -0.1707  0.2107
 6217SOL    HW120092   3.114   1.008  12.330  0.8846  0.1146  1.1725
 6217SOL    HW220093   3.051   0.876  12.366 -0.3346  0.1956 -0.5417
 6218SOL     OW20094   1.745   1.195   0.791 -0.7571  0.6202  0.4553
 6218SOL    HW120095   1.708   1.131   0.852 -1.7332  1.2129  0.5160
 6218SOL    HW220096   1.670   1.250   0.766 -0.5304  0.0577 -1.7124
 6219SOL     OW20097   3.372   1.523  12.143 -0.5451 -0.0873 -0.0124
 6219SOL    HW120098   3.369   1.485  12.055  0.1600 -1.0427  0.3491
 6219SOL    HW220099   3.465   1.535  12.161 -0.7231  0.8773  0.2867
 6220SOL     OW20100   4.311   0.435   0.264 -0.5105 -0.0503 -0.0409
 6220SOL    HW120101   4.339   0.407   0.177  0.1351  0.3031  0.0437
 6220SOL    HW220102   4.219   0.457   0.254 -0.1087  1.3399 -0.9958
 6221SOL     OW20103   2.652   1.106   1.400  0.0733 -0.2943  0.0761
 6221SOL    HW120104   2.654   1.153   1.484  0.2658 -1.8790  1.0036
 6221SOL    HW220105   2.728   1.138   1.353  1.7929 -1.5531  1.8118
 6222SOL     OW20106   2.229   7.801   1.329 -0.1506 -0.1017  0.3914
 6222SOL    HW120107   2.195   7.730   1.274  1.0331 -1.6139  1.5351
 6222SOL    HW220108   2.292   7.847   1.273 -0.4063 -0.3804 -0.1320
 6223SOL     OW20109   4.271   0.008   1.825  0.7525  0.6042 -0.2782
 6223SOL    HW120110   4.322   0.044   1.897  2.0865  0.1265 -0.9475
 6223SOL    HW220111   4.219   0.081   1.793 -1.2813  0.4163  2.2934
 6224SOL     OW20112   2.333   2.759   2.567  0.1594 -0.0539 -0.0090
 6224SOL    HW120113   2.336   2.730   2.475 -0.0938  0.0635 -0.0530
 6224SOL    HW220114   2.248   2.729   2.599  0.3446 -0.3006  0.2557
 6225SOL     OW20115   2.708   2.024   1.426  0.1281  0.2921  0.5457
 6225SOL    HW120116   2.746   2.017   1.513  0.8346  0.7295  0.2774
 6225SOL    HW220117   2.629   1.969   1.430  0.1922  0.2503  1.4301
 6226SOL     OW20118   2.281   0.114   1.116  0.3746  0.3490 -0.6253
 6226SOL    HW120119   2.255   0.165   1.040  0.3947  2.3002  0.6060
 6226SOL    HW220120   2.205   0.118   1.174  0.7429 -0.2027 -0.0912
 6227SOL     OW20121   2.723   0.914   1.696 -0.2369 -0.6448  0.1459
 6227SOL    HW120122   2.673   0.901   1.777 -1.1552 -1.2896 -0.4986
 6227SOL    HW220123   2.813   0.927   1.726 -0.9220  1.8462  1.4199
 6228SOL     OW20124   2.604   7.953   1.922 -0.3050  0.7998  0.3315
 6228SOL    HW120125   2.625   7.984   1.834 -0.5162 -0.9668 -0.3795
 6228SOL    HW220126   2.511   7.973   1.933 -0.1795  1.4018  0.3364
 6229SOL     OW20127   2.756   0.779   0.898 -0.1009  0.1646 -0.0066
 6229SOL    HW120128   2.681   0.799   0.955  0.0388  1.0369 -0.1205
 6229SOL    HW220129   2.831   0.814   0.945  0.0959  0.3112 -0.4323
 6230SOL     OW20130   1.925   6.566  12.060  0.1739 -0.4049  0.3181
 6230SOL    HW120131   1.994   6.568  12.126 -0.8250 -0.0427  1.3943
 6230SOL    HW220132   1.917   6.656  12.029 -1.6164  0.1606  2.1982
 6231SOL     OW20133   3.249   1.858   1.208  0.2932  0.1702  0.2539
 6231SOL    HW120134   3.248   1.948   1.174 -0.4231  0.5446  1.2240
 6231SOL    HW220135   3.158   1.841   1.232  0.5258 -0.6217  0.5932
 6232SOL     OW20136   1.626   2.026   2.578  0.6357 -0.3494  0.3591
 6232SOL    HW120137   1.702   2.020   2.636  0.9185  0.3362  0.0660
 6232SOL    HW220138   1.647   2.098   2.519 -0.2775 -0.1001  0.3294
 6233SOL     OW20139   2.516   1.174   1.946  0.4502 -0.0014  0.5160
 6233SOL    HW120140   2.572   1.218   1.882  2.0877  0.5491  2.2331
 6233SOL    HW220141   2.518   1.231   2.023 -2.0382 -0.2733  0.8803
 6234SOL     OW20142   3.214   1.052   1.722 -0.4251  0.0244 -0.2597
 6234SOL    HW120143   3.276   1.087   1.658 -1.2248 -1.9813 -2.2397
 6234SOL    HW220144   3.257   0.975   1.758 -0.2600  0.7647  1.2454
 6235SOL     OW20145   1.544   7.357  11.362 -0.3655  0.4267  0.0533
 6235SOL    HW120146   1.484   7.429  11.380 -2.5380 -0.8301 -1.7750
 6235SOL    HW220147   1.488   7.280  11.350  1.7114 -1.1286 -0.2853
 6236SOL     OW20148   3.834   1.259   2.895 -0.2369  0.3338  0.2984
 6236SOL    HW120149   3.793   1.344   2.912 -1.4516 -0.0638 -0.4879
 6236SOL    HW220150   3.797   1.232   2.811  0.5958 -0.6980  0.2527
 6237SOL     OW20151   1.775   1.149   1.226  0.1903 -0.3703  0.6037
 6237SOL    HW120152   1.778   1.127   1.319  0.9846  0.6732  0.8407
 6237SOL    HW220153   1.729   1.076   1.186  1.4251 -1.7169  1.5501
 6238SOL     OW20154   3.327   0.568   1.693 -0.1131 -0.4038 -0.4743
 6238SOL    HW120155   3.252   0.612   1.652 -0.9914 -2.2707 -1.0059
 6238SOL    HW220156   3.294   0.481   1.715  1.9492 -1.3317 -0.8434
 6239SOL     OW20157   2.918   1.219  11.532  0.1303  0.5167 -0.0465
 6239SOL    HW120158   2.839   1.195  11.483 -0.0121  2.2033 -0.7172
 6239SOL    HW220159   2.888   1.235  11.621  0.1615 -1.2368  0.3174
 6240SOL     OW20160   4.261   1.360   0.642 -0.2061  0.4890  0.0317
 6240SOL    HW120161   4.177   1.399   0.667  0.1197  2.3277 -1.5265
 6240SOL    HW220162   4.320   1.434   0.630  1.1110 -0.6347 -0.7906
 6241SOL     OW20163   4.261   1.180   2.115  0.5874  0.8418  0.3658
 6241SOL    HW120164   4.199   1.129   2.166  1.5331 -0.2001  0.5246
 6241SOL    HW220165   4.292   1.119   2.047  2.2027  0.9707  0.9374
 6242SOL     OW20166   2.882   3.531   0.401 -0.0207  0.3267 -0.2910
 6242SOL    HW120167   2.958   3.581   0.373  0.6125 -0.5095 -0.1256
 6242SOL    HW220168   2.835   3.511   0.320 -0.1106  0.9116 -0.3863
 6243SOL     OW20169   2.300   1.533  11.014  0.0695  0.0379 -0.0633
 6243SOL    HW120170   2.309   1.626  11.033  1.2104 -0.4033  1.9418
 6243SOL    HW220171   2.270   1.495  11.097 -1.3020 -1.2906 -1.0985
 6244SOL     OW20172   3.466   7.667   0.353  0.5717  0.1041  0.0414
 6244SOL    HW120173   3.400   7.611   0.394  1.5270 -0.3951  0.9537
 6244SOL    HW220174   3.433   7.684   0.265 -1.0401  0.3422  0.6678
 6245SOL     OW20175   2.283   1.980   1.417  0.5129 -0.3374 -0.0895
 6245SOL    HW120176   2.253   2.071   1.422 -0.3418 -0.5463 -0.9984
 6245SOL    HW220177   2.205   1.928   1.434  1.3544 -0.9429  2.2457
 6246SOL     OW20178   1.689   2.578   0.948 -0.6212  0.1964 -0.3154
 6246SOL    HW120179   1.693   2.602   1.041  0.8635  1.1379 -0.5854
 6246SOL    HW220180   1.596   2.580   0.927 -0.8857  1.2172  0.8407
 6247SOL     OW20181   1.579   2.294   0.218  0.3694 -0.3254 -0.0048
 6247SOL    HW120182   1.640   2.297   0.144  0.6042  0.6575  0.2180
 6247SOL    HW220183   1.612   2.223   0.273  1.3857  0.2629  0.1669
 6248SOL     OW20184   7.359   0.663   1.605  0.1901  0.2778 -0.1144
 6248SOL    HW120185   7.322   0.739   1.649 -0.6431 -0.2060  0.0455
 6248SOL    HW220186   7.328   0.588   1.656 -2.1974 -0.4346 -2.3897
 6249SOL     OW20187   1.830   1.663   0.840 -0.0066  0.2164  0.3136
 6249SOL    HW120188   1.759   1.711   0.798  0.8289  0.3955 -0.9321
 6249SOL    HW220189   1.889   1.730   0.872  1.0793  0.0520 -1.2800
 6250SOL     OW20190   2.079   1.627   1.844  0.1418 -0.3498 -0.3259
 6250SOL    HW120191   2.031   1.677   1.910  0.6206 -0.8236  0.3973
 6250SOL    HW220192   2.102   1.691   1.777  0.3803  0.3144  0.3775
 6251SOL     OW20193   1.914   2.117   2.691  0.1196 -0.2878 -0.0830
 6251SOL    HW120194   1.942   2.152   2.606  1.6589  1.1827  0.9700
 6251SOL    HW220195   1.851   2.182   2.723  1.1248  0.2726  0.7996
 6252SOL     OW20196   3.281   0.605   2.290 -0.0662 -0.6214  0.1145
 6252SOL    HW120197   3.201   0.563   2.321  1.2063 -2.3930  1.1827
 6252SOL    HW220198   3.351   0.547   2.319  1.5171 -0.1083 -2.3760
 6253SOL     OW20199   3.990   0.693  10.901 -0.8649 -0.2746  0.0918
 6253SOL    HW120200   3.936   0.618  10.878  0.0268 -0.3444 -1.8966
 6253SOL    HW220201   4.080   0.663  10.891 -0.4786  1.1705 -1.2994
 6254SOL     OW20202   2.946   0.503   2.059  0.2581 -0.0439  0.7541
 6254SOL    HW120203   2.975   0.480   2.148  2.0271 -1.1180 -0.0299
 6254SOL    HW220204   2.911   0.421   2.023 -0.5833  0.4175  0.4996
 6255SOL     OW20205   1.891   1.762   0.530  0.3330  0.0053  0.6687
 6255SOL    HW120206   1.928   1.677   0.506 -0.8591 -0.4784  0.4671
 6255SOL    HW220207   1.910   1.770   0.623  0.3348 -0.5492  0.7226
 6256SOL     OW20208   3.017   4.175  12.409 -0.3865 -0.4000  0.3943
 6256SOL    HW120209   2.957   4.154  12.338  0.8532  1.1313 -1.1980
 6256SOL    HW220210   3.069   4.096  12.422 -1.3698 -1.0556  0.3847
 6257SOL     OW20211   2.366   2.039   0.163  0.8027 -0.1577 -0.1332
 6257SOL    HW120212   2.291   1.981   0.171  0.4419  0.3831  0.5288
 6257SOL    HW220213   2.330   2.127   0.175  1.3686  0.1936 -0.9495
 6258SOL     OW20214   2.721   0.033  12.176  0.3417  0.0922  0.1684
 6258SOL    HW120215   2.753   0.086  12.250  0.5982  0.3451 -0.1212
 6258SOL    HW220216   2.723  -0.057  12.209  0.0589  0.2444  0.6083
 6259SOL     OW20217   2.716   0.805   0.645  0.2530 -0.0608 -0.3319
 6259SOL    HW120218   2.722   0.772   0.734  0.3039 -0.6307 -0.5434
 6259SOL    HW220219   2.732   0.899   0.653 -0.8610  0.0781  0.3953
 6260SOL     OW20220   1.160   1.245   0.679 -0.2643  0.9434  0.3343
 6260SOL    HW120221   1.093   1.310   0.655 -0.3245  0.1978 -1.6916
 6260SOL    HW220222   1.235   1.268   0.624 -0.4159 -0.8927 -0.7037
 6261SOL     OW20223   1.326   1.857   1.712  0.4609 -0.6403 -0.1238
 6261SOL    HW120224   1.386   1.894   1.776 -1.5620  0.6919  1.1074
 6261SOL    HW220225   1.293   1.932   1.663  0.8507 -1.4963 -1.7722
 6262SOL     OW20226   0.430   1.216   1.828 -0.3102 -0.4029  0.2795
 6262SOL    HW120227   0.452   1.123   1.824  1.2682 -0.0601  0.1994
 6262SOL    HW220228   0.390   1.228   1.914 -0.3866 -1.1187  0.3528
 6263SOL     OW20229   1.486   7.708   1.953 -0.1404 -0.4795  0.0021
 6263SOL    HW120230   1.468   7.646   2.024 -0.4399 -0.3909  0.0045
 6263SOL    HW220231   1.422   7.688   1.885  0.7103 -1.1442 -0.6210
 6264SOL     OW20232   1.010   2.062   1.354  0.2915 -0.1773  0.3771
 6264SOL    HW120233   0.983   2.110   1.275  0.4795 -0.2745  0.2518
 6264SOL    HW220234   1.101   2.039   1.337  0.2222 -0.5199  0.4664
 6265SOL     OW20235   3.035   0.729   1.900 -0.0078  0.3444 -0.0480
 6265SOL    HW120236   3.004   0.808   1.945  0.6410 -0.3296  1.6640
 6265SOL    HW220237   2.991   0.657   1.944  0.7987 -0.3617 -0.3713
 6266SOL     OW20238   1.467   7.585   1.496 -0.1620 -0.1520 -0.4124
 6266SOL    HW120239   1.553   7.592   1.454  0.2205 -0.4739  0.2957
 6266SOL    HW220240   1.405   7.612   1.428  0.5578  1.0037 -0.6441
 6267SOL     OW20241   3.117   0.625  12.047  0.0931  0.0540 -0.1958
 6267SOL    HW120242   3.067   0.706  12.041  1.1791  0.7717  0.2456
 6267SOL    HW220243   3.052   0.556  12.030 -0.9558  0.9726 -0.0349
 6268SOL     OW20244   0.975   1.752   2.972 -0.2268 -0.1478  0.5857
 6268SOL    HW120245   0.891   1.797   2.969  0.1236  0.5856  1.5044
 6268SOL    HW220246   1.037   1.819   2.998  0.6475 -0.6966 -0.0384
 6269SOL     OW20247   1.525   1.455   1.917  0.4918  0.4559 -0.4862
 6269SOL    HW120248   1.474   1.510   1.976 -0.9712  0.6698 -1.8792
 6269SOL    HW220249   1.552   1.514   1.847 -0.2770 -0.3549 -1.5012
 6270SOL     OW20250   3.074   0.724   1.632  0.5756  0.1891  0.0709
 6270SOL    HW120251   3.061   0.737   1.725 -0.0862  1.9428 -0.2315
 6270SOL    HW220252   2.999   0.767   1.590 -0.0209 -1.9518 -1.2431
 6271SOL     OW20253   3.131   0.598   3.322 -0.4992  0.4878  0.1640
 6271SOL    HW120254   3.093   0.621   3.237  1.5842  3.1041 -0.1725
 6271SOL    HW220255   3.187   0.523   3.304 -0.7295  0.4857 -0.5672
 6272SOL     OW20256   2.490   0.689   0.508 -0.0215 -0.0165 -0.4657
 6272SOL    HW120257   2.555   0.738   0.559  0.3259 -0.6785 -0.2659
 6272SOL    HW220258   2.426   0.755   0.482  0.2377  0.4823  0.1243
 6273SOL     OW20259   3.116   1.067   1.416 -0.6667 -0.1935 -0.0773
 6273SOL    HW120260   3.201   1.082   1.377  0.3269 -0.3967  1.8736
 6273SOL    HW220261   3.135   1.031   1.503 -2.7049  0.6716  0.8134
 6274SOL     OW20262   1.476   7.189   0.821  0.0533 -0.0609 -0.3426
 6274SOL    HW120263   1.399   7.225   0.864  0.7396  1.1610 -0.0829
 6274SOL    HW220264   1.504   7.117   0.878 -0.3528  0.0935  0.0547
 6275SOL     OW20265   1.214   7.900   1.680 -0.2598 -0.3576 -0.0583
 6275SOL    HW120266   1.240   7.820   1.726  1.7653 -0.0785 -0.6200
 6275SOL    HW220267   1.287   7.960   1.694 -0.6003  0.5052 -1.7892
 6276SOL     OW20268   4.204   7.535   0.244 -0.0004  0.5305  0.7199
 6276SOL    HW120269   4.245   7.605   0.295  0.3342  0.8729  0.0069
 6276SOL    HW220270   4.216   7.456   0.296  3.4109  0.2152 -0.3012
 6277SOL     OW20271   2.242   2.588   2.035 -0.0575  0.3608 -0.1994
 6277SOL    HW120272   2.228   2.512   2.093 -0.7221  0.7684  0.1811
 6277SOL    HW220273   2.155   2.608   2.001  0.0865  1.0688 -0.1550
 6278SOL     OW20274   1.637   0.500   0.616 -0.2360 -0.5466  0.1054
 6278SOL    HW120275   1.598   0.493   0.529 -1.1331  0.1518  0.4362
 6278SOL    HW220276   1.728   0.472   0.603 -0.5601 -1.2320 -0.8840
 6279SOL     OW20277   3.371   1.472   1.064  0.4280  0.2448  0.3488
 6279SOL    HW120278   3.279   1.467   1.090  0.1053 -0.6303 -0.8799
 6279SOL    HW220279   3.420   1.451   1.143 -0.3655  1.9096  1.3341
 6280SOL     OW20280   1.448   1.056   0.813 -0.2437 -0.8549  0.0990
 6280SOL    HW120281   1.521   1.040   0.873  0.8006  1.3755 -0.4988
 6280SOL    HW220282   1.444   0.977   0.759  0.9164 -1.5195  0.9364
 6281SOL     OW20283   3.028   1.413   1.139  0.0028 -0.4378 -0.0186
 6281SOL    HW120284   3.057   1.377   1.223 -1.6862 -0.9082  0.4168
 6281SOL    HW220285   3.004   1.336   1.087  0.7460 -0.1316 -0.8190
 6282SOL     OW20286   3.959   7.922   0.191  0.1199 -0.5632  0.0522
 6282SOL    HW120287   3.913   8.006   0.185  0.5529 -0.3518 -0.3921
 6282SOL    HW220288   4.051   7.946   0.206  0.3117 -0.9430 -0.4842
 6283SOL     OW20289   0.607   0.301  12.159  0.3206 -0.1060  0.2248
 6283SOL    HW120290   0.542   0.328  12.223  0.5542 -0.0647  0.4464
 6283SOL    HW220291   0.634   0.383  12.116 -1.1094 -0.3097 -1.1626
 6284SOL     OW20292   1.281   2.007   1.319  0.1773  0.3655  0.0955
 6284SOL    HW120293   1.335   1.928   1.332  0.0380  0.5682  2.2721
 6284SOL    HW220294   1.336   2.064   1.265  0.5596 -0.9302 -0.9422
 6285SOL     OW20295   2.246   1.228   2.092 -0.1262 -0.0627  0.2793
 6285SOL    HW120296   2.237   1.323   2.080 -2.1862 -0.2168  0.2777
 6285SOL    HW220297   2.264   1.194   2.004 -0.5891  0.2138  0.0772
 6286SOL     OW20298   1.989   7.400  12.485  0.4500 -0.1600 -0.1748
 6286SOL    HW120299   1.908   7.388  12.534 -1.3783  0.6731 -2.8357
 6286SOL    HW220300   2.048   7.334  12.521 -2.2371 -2.6051  0.0925
 6287SOL     OW20301   3.987   2.378   1.826  0.3370  0.2306  0.2016
 6287SOL    HW120302   4.045   2.349   1.756  1.4140  0.9828  0.7522
 6287SOL    HW220303   3.908   2.326   1.814  1.1136 -0.8366 -0.5821
 6288SOL     OW20304   0.000   1.586   2.518 -0.2117  0.3217  0.4824
 6288SOL    HW120305  -0.090   1.564   2.542 -1.0634  2.0272 -0.9050
 6288SOL    HW220306   0.043   1.604   2.602 -0.8689 -1.4194  1.2348
 6289SOL     OW20307   3.958   1.312   0.181 -0.2456  0.4444  0.8759
 6289SOL    HW120308   3.894   1.374   0.216  1.0178  2.3607 -0.0874
 6289SOL    HW220309   3.954   1.325   0.086  1.6157  0.6745  0.8010
 6290SOL     OW20310   4.496   7.079   0.777  0.6560 -0.0514 -0.0046
 6290SOL    HW120311   4.437   7.021   0.729 -1.4187 -0.5116  2.8623
 6290SOL    HW220312   4.541   7.022   0.839 -0.2808  1.0764  1.8009
 6291SOL     OW20313   2.475   7.320   2.055  0.5805 -0.4454 -0.2099
 6291SOL    HW120314   2.565   7.287   2.066  0.3126 -1.2210 -0.3004
 6291SOL    HW220315   2.435   7.308   2.141  0.3571 -0.7411 -0.3544
 6292SOL     OW20316   0.985   0.826   1.774 -0.1978 -0.7934  0.1526
 6292SOL    HW120317   0.949   0.893   1.831 -2.0251 -1.6581  0.0937
 6292SOL    HW220318   0.909   0.777   1.743  0.9719 -2.1111 -0.7976
 6293SOL     OW20319   2.335   3.083   2.098  0.2504 -0.1411  0.2175
 6293SOL    HW120320   2.387   3.094   2.178  1.0979 -1.7620 -0.0667
 6293SOL    HW220321   2.380   3.138   2.033 -0.3029  0.9932  0.7622
 6294SOL     OW20322   2.771   6.912   0.948 -0.5707  0.0995  0.4320
 6294SOL    HW120323   2.682   6.881   0.934 -0.5528  0.2731 -0.0767
 6294SOL    HW220324   2.795   6.954   0.866 -0.2128  0.5268  0.7539
 6295SOL     OW20325   4.229   7.779  12.294 -0.4240 -0.2266 -0.7211
 6295SOL    HW120326   4.302   7.822  12.249 -0.9158 -0.1100 -1.4281
 6295SOL    HW220327   4.259   7.768  12.384  0.5795 -0.4406 -1.0665
 6296SOL     OW20328   1.136   1.667   1.010 -0.1651  0.2271 -0.2326
 6296SOL    HW120329   1.203   1.609   0.975 -0.7099  0.4742 -1.7441
 6296SOL    HW220330   1.121   1.732   0.941 -2.2972 -0.1086 -0.1536
 6297SOL     OW20331   0.827   1.277   0.514 -0.0479 -0.5531  0.4182
 6297SOL    HW120332   0.811   1.302   0.605  0.4970  1.5143 -0.0080
 6297SOL    HW220333   0.761   1.210   0.495 -0.2186 -0.9697  2.2878
 6298SOL     OW20334   2.189   1.548   0.156  0.0391  0.3381  0.0281
 6298SOL    HW120335   2.161   1.508   0.073  2.2493 -1.5703  0.0866
 6298SOL    HW220336   2.146   1.495   0.223 -1.1969  1.4524  0.1634
 6299SOL     OW20337   7.137   2.394   4.097  0.1602 -0.3198 -0.3505
 6299SOL    HW120338   7.223   2.397   4.056  0.0660  0.3902 -0.4968
 6299SOL    HW220339   7.097   2.478   4.076  0.2454  0.2176  1.4912
 6300SOL     OW20340   3.975   7.941   2.516 -0.2306 -0.0630  0.0633
 6300SOL    HW120341   3.926   8.023   2.512 -0.0329  0.0382 -0.3052
 6300SOL    HW220342   3.928   7.889   2.582 -0.7555  0.0808 -0.1891
 6301SOL     OW20343   2.205   7.544   3.010 -0.3151  0.2938  0.2085
 6301SOL    HW120344   2.212   7.461   2.962  0.6724  0.3634  0.2167
 6301SOL    HW220345   2.286   7.550   3.060 -0.8228  0.7895  0.9896
 6302SOL     OW20346   2.835   1.361   3.595  0.4913 -0.4765  0.3925
 6302SOL    HW120347   2.851   1.337   3.504 -0.3700 -1.3339  0.4464
 6302SOL    HW220348   2.898   1.309   3.645  1.3236  0.3944  0.2581
 6303SOL     OW20349   3.150   2.659   2.196  0.5763  0.3914  0.1237
 6303SOL    HW120350   3.240   2.677   2.168  1.1153 -1.8018  0.3090
 6303SOL    HW220351   3.152   2.671   2.291  0.5242  0.8649  0.0688
 6304SOL     OW20352   2.171   0.330   0.899 -0.7390 -0.1658  0.2343
 6304SOL    HW120353   2.243   0.306   0.841  0.2396  0.3363  1.1953
 6304SOL    HW220354   2.106   0.261   0.886  0.8886 -1.9498  1.0066
 6305SOL     OW20355   3.372   2.715   2.638 -0.0858  0.0468  0.1125
 6305SOL    HW120356   3.322   2.713   2.720  0.1122 -0.1081  0.2297
 6305SOL    HW220357   3.438   2.646   2.649 -0.7061 -0.6792 -0.5796
 6306SOL     OW20358   3.691   1.136   2.243 -0.0185 -0.5702  0.5593
 6306SOL    HW120359   3.693   1.218   2.292  1.8618 -0.1024 -0.2162
 6306SOL    HW220360   3.607   1.138   2.197 -0.0424  0.8671  0.6276
 6307SOL     OW20361   3.038   1.159   4.011  0.8605 -0.2148  0.0920
 6307SOL    HW120362   3.023   1.207   4.092 -0.4574 -1.2581  0.4957
 6307SOL    HW220363   2.969   1.092   4.009  1.0913 -0.4515 -1.7028
 6308SOL     OW20364   3.017   7.656   2.587  0.3072 -0.4495 -0.1035
 6308SOL    HW120365   3.085   7.723   2.598  1.3617 -1.2821 -1.2471
 6308SOL    HW220366   3.048   7.582   2.640 -0.3389 -0.3987  0.3498
 6309SOL     OW20367   4.163   1.220   5.980  0.0773 -0.1483  0.1166
 6309SOL    HW120368   4.069   1.201   5.983  0.1488 -0.4039  0.9968
 6309SOL    HW220369   4.169   1.311   6.006  0.1685 -0.5255  1.5139
 6310SOL     OW20370   2.575   2.284   2.366  0.3639 -0.2401  0.1322
 6310SOL    HW120371   2.520   2.359   2.344  2.5471  1.3492 -0.3322
 6310SOL    HW220372   2.523   2.233   2.429 -1.6261  1.0501 -0.3780
 6311SOL     OW20373   3.118   2.018   4.191 -0.4826 -0.0567 -0.0244
 6311SOL    HW120374   3.192   1.971   4.152 -0.5762 -0.1194 -0.1293
 6311SOL    HW220375   3.042   1.986   4.142 -0.3712  1.5648 -1.3678
 6312SOL     OW20376   0.993   2.701   3.727  0.3074 -0.0845 -0.6209
 6312SOL    HW120377   1.078   2.740   3.749 -0.1349  0.4290  0.2259
 6312SOL    HW220378   0.930   2.772   3.740 -0.5481 -1.1179  1.2031
 6313SOL     OW20379   2.393   0.251   0.737  0.2658  0.4210 -0.3226
 6313SOL    HW120380   2.462   0.211   0.791 -1.1897 -0.4842  0.9669
 6313SOL    HW220381   2.437   0.321   0.690  2.0831 -0.1802  0.3907
 6314SOL     OW20382   2.453   1.402   2.387 -0.5699  1.2529  0.5048
 6314SOL    HW120383   2.512   1.326   2.387  0.1235  1.6296 -3.1883
 6314SOL    HW220384   2.512   1.477   2.389 -0.7396  1.6296 -2.8277
 6315SOL     OW20385   2.627   1.681   1.294 -0.2761  0.5062 -0.4777
 6315SOL    HW120386   2.579   1.712   1.216 -0.2830  0.6044 -0.4334
 6315SOL    HW220387   2.657   1.594   1.269  1.8674  1.4850 -1.5157
 6316SOL     OW20388   4.675   0.312   1.854  0.2730 -0.1627 -0.1523
 6316SOL    HW120389   4.673   0.408   1.846 -2.0946 -0.1785 -0.5615
 6316SOL    HW220390   4.706   0.297   1.943  2.4713  0.8860 -0.6786
 6317SOL     OW20391   1.842   1.863   3.190 -0.3979 -0.2812 -0.5197
 6317SOL    HW120392   1.802   1.944   3.158  2.5507  1.3346 -0.5297
 6317SOL    HW220393   1.776   1.795   3.174 -2.6589  1.9513 -1.3331
 6318SOL     OW20394   1.464   2.198   2.879  0.1287 -0.3008  0.2459
 6318SOL    HW120395   1.372   2.186   2.856  0.2181  0.4207 -0.5418
 6318SOL    HW220396   1.471   2.291   2.903  0.4895 -0.5405  1.0962
 6319SOL     OW20397   3.252   0.687   2.044 -0.0471 -0.5226 -0.1726
 6319SOL    HW120398   3.269   0.660   2.134  2.0212 -1.3938 -0.7711
 6319SOL    HW220399   3.164   0.654   2.024 -0.6463 -0.0679  1.5868
 6320SOL     OW20400   3.302   0.435   3.071  0.0505 -0.4869  0.3949
 6320SOL    HW120401   3.278   0.526   3.058 -2.5773 -1.2029 -0.2247
 6320SOL    HW220402   3.245   0.385   3.013  0.9236 -2.6010  1.2117
 6321SOL     OW20403   2.518   0.768   3.338  0.0580 -0.1130  0.2175
 6321SOL    HW120404   2.611   0.771   3.357  0.4660 -0.3126 -1.6300
 6321SOL    HW220405   2.510   0.804   3.250 -1.6731  0.3340  0.5154
 6322SOL     OW20406   3.367   1.786   2.074  0.2485 -0.1678 -0.0129
 6322SOL    HW120407   3.286   1.834   2.089  0.6389  0.2690  0.7698
 6322SOL    HW220408   3.402   1.770   2.162 -0.7751 -3.5170 -0.0712
 6323SOL     OW20409   1.249   1.508   1.595 -0.2389 -0.3581  0.1004
 6323SOL    HW120410   1.265   1.518   1.501 -1.5179  3.3174  0.1284
 6323SOL    HW220411   1.328   1.544   1.636 -0.8464  0.7726  0.3369
 6324SOL     OW20412   2.904   0.659   1.233 -0.5864 -0.4031 -0.2008
 6324SOL    HW120413   2.938   0.732   1.182  2.1424 -1.3871  0.0651
 6324SOL    HW220414   2.862   0.700   1.309  2.3982  0.9412  0.8443
 6325SOL     OW20415   4.093   1.047   1.198 -0.1462  0.0179  0.0394
 6325SOL    HW120416   4.037   1.034   1.121  1.7816 -1.6396 -1.1633
 6325SOL    HW220417   4.034   1.036   1.272 -1.7925  0.2758 -1.1691
 6326SOL     OW20418   3.055   1.920   3.856  0.1907  0.1038 -0.2060
 6326SOL    HW120419   2.960   1.922   3.847  0.2114  1.7750 -0.3922
 6326SOL    HW220420   3.086   1.990   3.798  1.5857 -0.7779 -0.5817
 6327SOL     OW20421   1.946   2.458   2.201 -0.3773 -0.1970  0.1224
 6327SOL    HW120422   1.866   2.509   2.210 -0.8959 -1.0367  0.4417
 6327SOL    HW220423   2.017   2.520   2.219 -1.0016  0.3334  0.8118
 6328SOL     OW20424   4.786   1.949   4.013 -0.1203  0.5276  0.4637
 6328SOL    HW120425   4.751   2.014   3.952 -1.1095 -0.4852 -0.0906
 6328SOL    HW220426   4.731   1.871   3.999  2.5156 -1.2932 -0.6606
 6329SOL     OW20427   1.935   6.096   2.831 -0.3210 -0.0598  0.4080
 6329SOL    HW120428   1.994   6.151   2.779  1.5848 -1.0664  1.3989
 6329SOL    HW220429   1.951   6.123   2.921 -1.4680 -0.2997  0.6944
 6330SOL     OW20430   2.863   7.717   3.501  0.3248 -0.2423 -0.6301
 6330SOL    HW120431   2.902   7.709   3.588  0.0134  0.2245 -0.4444
 6330SOL    HW220432   2.807   7.794   3.506  1.9475  1.0976 -1.8740
 6331SOL     OW20433   4.687   1.092   2.488  0.6571 -0.0520 -0.0381
 6331SOL    HW120434   4.745   1.088   2.412  0.0820 -1.3059 -0.4357
 6331SOL    HW220435   4.603   1.057   2.457  0.3608 -0.4300  1.1266
 6332SOL     OW20436   3.392   1.348   2.550  0.3684  0.0204  0.3213
 6332SOL    HW120437   3.376   1.418   2.613  0.6344 -0.1655  0.5962
 6332SOL    HW220438   3.370   1.387   2.465  0.1024  0.3011  0.5167
 6333SOL     OW20439   1.735   0.975   4.302 -0.6824  0.2397 -0.2441
 6333SOL    HW120440   1.813   0.958   4.248 -1.2998  0.1872 -1.1414
 6333SOL    HW220441   1.750   1.062   4.338  0.9454 -0.7345  1.6465
 6334SOL     OW20442   2.783   2.262   2.992 -0.1597  0.6353  0.0057
 6334SOL    HW120443   2.748   2.296   2.909 -1.8482 -1.7001 -0.3490
 6334SOL    HW220444   2.877   2.274   2.984 -0.3604  1.4266 -1.8101
 6335SOL     OW20445   4.651   1.319   2.825  0.7003 -0.2526 -0.9125
 6335SOL    HW120446   4.578   1.278   2.779  1.5400 -0.4853 -2.0603
 6335SOL    HW220447   4.615   1.342   2.911 -0.6467 -0.5907 -1.3670
 6336SOL     OW20448   3.797   0.171   2.593 -0.0840 -0.3448  0.1746
 6336SOL    HW120449   3.785   0.218   2.510 -0.1474  0.9767  0.9119
 6336SOL    HW220450   3.721   0.112   2.597  0.6920 -1.5184 -1.3876
 6337SOL     OW20451   3.848   0.505   2.030  0.7278  0.5323 -0.6113
 6337SOL    HW120452   3.904   0.583   2.029  1.0955  0.2684 -1.3997
 6337SOL    HW220453   3.862   0.464   1.945  0.5042 -0.3733 -0.2293
 6338SOL     OW20454   2.393   1.490   1.030  0.1776  0.3252 -0.3183
 6338SOL    HW120455   2.338   1.565   1.052  0.5477  2.0360 -4.3538
 6338SOL    HW220456   2.480   1.528   1.016  0.5263 -0.9463 -1.8014
 6339SOL     OW20457   3.378   1.601   2.700 -0.3163  0.3965  0.9457
 6339SOL    HW120458   3.468   1.583   2.673 -0.0899  1.4338  0.9621
 6339SOL    HW220459   3.363   1.692   2.673 -1.3152  0.2753  1.0581
 6340SOL     OW20460   4.458   7.650   3.982  0.3451  0.5489  0.7764
 6340SOL    HW120461   4.422   7.628   4.068 -2.1801  2.0265  0.1937
 6340SOL    HW220462   4.470   7.565   3.939 -0.9437 -0.0978  1.6226
 6341SOL     OW20463   5.359   0.926   4.489  0.0739  0.0670 -0.3282
 6341SOL    HW120464   5.423   0.961   4.552 -0.5921  0.1623  0.3067
 6341SOL    HW220465   5.371   0.979   4.410  0.2046  0.6374  0.0697
 6342SOL     OW20466   3.373   7.844   3.043 -0.0612  0.5421 -0.1880
 6342SOL    HW120467   3.425   7.861   3.122  1.6547 -0.9241 -0.9501
 6342SOL    HW220468   3.437   7.827   2.975 -1.5432  0.1517 -1.5344
 6343SOL     OW20469   3.377   0.873   2.377 -0.2945 -0.1175  0.0123
 6343SOL    HW120470   3.456   0.830   2.410  0.0769  0.8298  0.3801
 6343SOL    HW220471   3.326   0.802   2.339  0.0760 -0.9755  1.0559
 6344SOL     OW20472   1.374   1.700   2.946 -0.4365  0.6462 -0.0799
 6344SOL    HW120473   1.286   1.692   2.909 -0.6277  1.4084  0.1959
 6344SOL    HW220474   1.360   1.743   3.031 -0.3660 -3.4760  2.2999
 6345SOL     OW20475   0.489   2.246   4.148 -0.6315 -0.2862  0.2142
 6345SOL    HW120476   0.473   2.235   4.054 -2.1110  1.4488  0.2041
 6345SOL    HW220477   0.402   2.241   4.188 -0.0950 -0.3683  1.4198
 6346SOL     OW20478   1.887   7.715   2.285  0.1884 -0.3915 -0.0448
 6346SOL    HW120479   1.831   7.650   2.242  2.3590 -1.4926 -1.3352
 6346SOL    HW220480   1.931   7.760   2.213 -0.3039  1.6691  0.8804
 6347SOL     OW20481   4.990   2.425   3.555 -0.1006  0.2946 -0.4001
 6347SOL    HW120482   4.931   2.376   3.613 -0.0404  0.1223 -0.4853
 6347SOL    HW220483   5.016   2.362   3.488  0.6637  0.1988 -0.0201
 6348SOL     OW20484   2.061   7.659   0.923 -0.1924  0.8995 -0.3417
 6348SOL    HW120485   2.079   7.617   1.007 -1.3172  2.3918  0.7173
 6348SOL    HW220486   2.146   7.670   0.882  0.3551 -0.0534  0.5014
 6349SOL     OW20487   1.946   1.159   3.612 -0.2603 -0.1007 -0.0895
 6349SOL    HW120488   1.929   1.253   3.619  2.5408  0.5707 -1.0931
 6349SOL    HW220489   1.871   1.125   3.563 -0.6642  1.8471 -0.9131
 6350SOL     OW20490   2.138   0.764   3.001 -0.2125 -0.1460 -0.4342
 6350SOL    HW120491   2.110   0.731   2.915 -1.3200  0.4648 -0.3247
 6350SOL    HW220492   2.233   0.773   2.993  0.3147 -3.9111 -0.2559
 6351SOL     OW20493   1.820   0.817   0.966  0.4185  0.2601 -0.1005
 6351SOL    HW120494   1.898   0.769   0.995  0.2833  0.0514 -0.0780
 6351SOL    HW220495   1.781   0.760   0.900  1.1306  1.0664 -1.2474
 6352SOL     OW20496   4.473   0.813   2.090  0.1165  0.3128  0.6960
 6352SOL    HW120497   4.455   0.721   2.106  0.0693 -0.2983 -2.2440
 6352SOL    HW220498   4.387   0.855   2.091 -0.0271  0.0271  0.4989
 6353SOL     OW20499   2.721   2.223   2.710 -0.7198  0.3767  0.1676
 6353SOL    HW120500   2.634   2.207   2.676 -0.6821  1.4802 -0.4622
 6353SOL    HW220501   2.744   2.311   2.681  1.0104 -0.2550 -0.5469
 6354SOL     OW20502   3.257   7.024   3.338 -0.8814  0.2362 -0.4948
 6354SOL    HW120503   3.311   7.041   3.261  3.2536 -1.7828  1.5931
 6354SOL    HW220504   3.254   7.108   3.384 -0.1135  0.5553 -1.0135
 6355SOL     OW20505   1.851   1.699   1.483  0.0215 -0.4131 -0.2243
 6355SOL    HW120506   1.835   1.614   1.523  0.2277 -0.2323  0.2389
 6355SOL    HW220507   1.920   1.739   1.536  0.1776 -0.1044 -0.6537
 6356SOL     OW20508   3.188   0.230   2.207  0.1830  0.4744  0.3628
 6356SOL    HW120509   3.109   0.176   2.208  0.8760 -0.6825  3.5485
 6356SOL    HW220510   3.158   0.317   2.232 -0.7711  1.5825 -3.7883
 6357SOL     OW20511   1.092   3.085   0.415  0.2859  0.3218 -0.2329
 6357SOL    HW120512   1.021   3.126   0.365 -2.0787  1.2004  3.4746
 6357SOL    HW220513   1.078   2.991   0.404  0.9452  0.4380 -2.5140
 6358SOL     OW20514   2.146   1.529   3.580  1.0392  0.2398 -0.1563
 6358SOL    HW120515   2.105   1.547   3.496  0.6023  0.8525  0.1818
 6358SOL    HW220516   2.186   1.442   3.569  0.0324 -0.1792 -0.6357
 6359SOL     OW20517   5.643   1.116   0.292  0.1613  0.3171  0.4868
 6359SOL    HW120518   5.684   1.030   0.280 -1.5856 -0.8233  2.0123
 6359SOL    HW220519   5.610   1.139   0.204  0.0183 -0.9523  0.1886
 6360SOL     OW20520   2.198   0.554   1.923 -0.1135  0.1980  0.5036
 6360SOL    HW120521   2.212   0.641   1.884  0.5386 -0.4317 -0.7170
 6360SOL    HW220522   2.235   0.493   1.860 -1.4942 -1.0582  0.8499
 6361SOL     OW20523   4.641   0.428   2.981 -0.3726  0.1657 -0.3846
 6361SOL    HW120524   4.733   0.421   3.006 -0.1153 -2.3480 -1.7414
 6361SOL    HW220525   4.641   0.493   2.911  0.8692 -1.6441 -2.1822
 6362SOL     OW20526   0.760   2.073   3.753 -0.3614  0.4063 -0.3702
 6362SOL    HW120527   0.835   2.056   3.696 -1.6317 -0.1396 -1.9464
 6362SOL    HW220528   0.703   1.997   3.741 -1.4177  1.0437  0.3922
 6363SOL     OW20529   2.041   3.431   2.522 -0.1861 -0.3451 -0.0752
 6363SOL    HW120530   2.040   3.523   2.551  0.2380 -0.2427 -0.3887
 6363SOL    HW220531   2.102   3.388   2.581  0.8649 -0.0875 -0.9397
 6364SOL     OW20532   2.678   0.620   2.026  0.2041 -0.5856 -0.3750
 6364SOL    HW120533   2.764   0.586   2.049  0.1595 -0.0133  0.6909
 6364SOL    HW220534   2.666   0.595   1.934  0.7262 -2.2569 -0.0252
 6365SOL     OW20535   5.429   0.217   3.589 -0.1334  0.0771 -0.4104
 6365SOL    HW120536   5.357   0.171   3.634 -0.5007 -0.4072 -1.4608
 6365SOL    HW220537   5.433   0.176   3.503  1.5786 -0.0663 -0.2843
 6366SOL     OW20538   2.798   0.263   2.325 -0.3339 -0.2197  0.4000
 6366SOL    HW120539   2.833   0.220   2.247 -1.8958  0.7739 -0.9071
 6366SOL    HW220540   2.851   0.341   2.335 -0.9509  0.3285 -0.4784
 6367SOL     OW20541   3.668   0.259   2.291  0.1839 -0.3056  0.3831
 6367SOL    HW120542   3.597   0.315   2.323  0.9100 -0.4891  2.4232
 6367SOL    HW220543   3.626   0.205   2.224 -1.4715 -0.0097  1.1181
 6368SOL     OW20544   3.932   0.928   2.781  0.3540  0.0322 -0.1340
 6368SOL    HW120545   3.867   0.984   2.739 -0.2793 -1.5731 -1.4082
 6368SOL    HW220546   3.883   0.851   2.811  1.4537 -0.6209  0.0760
 6369SOL     OW20547   3.667   1.590   3.736 -0.7796  0.0792  0.1239
 6369SOL    HW120548   3.725   1.663   3.715  0.0330 -0.3976  0.6525
 6369SOL    HW220549   3.665   1.588   3.832 -0.7673 -0.5984  0.1141
 6370SOL     OW20550   2.157   1.261   4.511  0.4330 -0.5216 -0.6292
 6370SOL    HW120551   2.209   1.335   4.543  2.0739 -1.2310 -1.5056
 6370SOL    HW220552   2.182   1.188   4.567  0.4631 -0.8844 -1.1059
 6371SOL     OW20553   4.048   7.565   3.035 -0.3105 -0.0570 -0.0055
 6371SOL    HW120554   3.964   7.605   3.013 -0.1820  0.1259 -0.1741
 6371SOL    HW220555   4.112   7.634   3.018 -0.2307  0.1991  1.2377
 6372SOL     OW20556   1.879   0.414   0.936  0.3100  0.5066 -0.0433
 6372SOL    HW120557   1.894   0.331   0.982  0.9304  1.3919  1.4147
 6372SOL    HW220558   1.787   0.412   0.912  0.3729 -0.7137 -0.2493
 6373SOL     OW20559   3.344   2.895   1.905 -0.0402 -0.2739  0.5262
 6373SOL    HW120560   3.331   2.922   1.996 -2.8028  1.1627 -0.1989
 6373SOL    HW220561   3.294   2.814   1.896  1.0751 -0.9889  0.4897
 6374SOL     OW20562   2.217   0.209   0.220 -0.5493  0.0829  0.0439
 6374SOL    HW120563   2.184   0.212   0.310 -1.1465 -1.6302 -0.0825
 6374SOL    HW220564   2.287   0.143   0.223  0.4348  1.0688 -0.4671
 6375SOL     OW20565   3.540   0.512   2.971 -0.4433 -0.0356  0.0218
 6375SOL    HW120566   3.451   0.494   3.000 -0.0734 -0.4031  0.9554
 6375SOL    HW220567   3.585   0.545   3.049  0.0111  0.9643 -0.6498
 6376SOL     OW20568   3.699   2.556   3.569  0.2904 -0.4575  0.2377
 6376SOL    HW120569   3.767   2.558   3.637  0.3990  0.1833  0.1132
 6376SOL    HW220570   3.616   2.557   3.618  0.3615 -1.2190  0.3889
 6377SOL     OW20571   3.077   2.184   1.471 -0.8278 -0.1234  0.2301
 6377SOL    HW120572   3.135   2.204   1.397 -0.4765  1.4693  0.8847
 6377SOL    HW220573   3.001   2.241   1.458 -1.2153 -0.5474  0.5899
 6378SOL     OW20574   3.311   1.235   2.858  0.2089 -0.3177 -0.5785
 6378SOL    HW120575   3.388   1.187   2.889 -1.3809 -1.7231  1.4847
 6378SOL    HW220576   3.304   1.213   2.765 -0.1728 -3.9144  0.1534
 6379SOL     OW20577   4.183   2.434   2.457 -0.1307 -0.2556 -0.1028
 6379SOL    HW120578   4.201   2.345   2.486 -0.4905 -0.9574 -1.8973
 6379SOL    HW220579   4.090   2.435   2.436  0.0822  0.2340 -1.0915
 6380SOL     OW20580   4.513   0.503   2.615 -0.0455  0.1057 -0.1647
 6380SOL    HW120581   4.607   0.515   2.625 -0.1065  1.0005 -0.6152
 6380SOL    HW220582   4.476   0.590   2.628 -0.8362 -0.2725  0.2222
 6381SOL     OW20583   3.509   0.708   3.515  0.0936 -0.0240  0.0828
 6381SOL    HW120584   3.562   0.787   3.499 -1.5449  1.5036  1.7472
 6381SOL    HW220585   3.432   0.720   3.460  0.7775 -1.6064 -1.3217
 6382SOL     OW20586   3.102   0.342   3.511  0.4653  0.6868  0.1486
 6382SOL    HW120587   3.049   0.345   3.431  1.6703  1.1333 -0.6648
 6382SOL    HW220588   3.191   0.361   3.481  1.0770  0.0567  1.4883
 6383SOL     OW20589   2.463   6.958   2.270 -0.1260 -0.4456 -0.3405
 6383SOL    HW120590   2.493   6.974   2.359 -0.9873 -0.5175 -0.0299
 6383SOL    HW220591   2.541   6.930   2.223  0.9529  2.2124 -0.2874
 6384SOL     OW20592   3.457   7.597   3.448  0.1137  0.8221  0.0619
 6384SOL    HW120593   3.380   7.608   3.504 -0.0779  0.7130 -0.1769
 6384SOL    HW220594   3.531   7.597   3.508 -0.2640 -2.3037  0.6919
 6385SOL     OW20595   3.036   0.038   3.438 -0.4278 -0.3657  0.3239
 6385SOL    HW120596   3.005   0.084   3.516 -1.2222  0.7020 -0.5945
 6385SOL    HW220597   2.959   0.030   3.382  0.6581  1.4559 -1.5878
 6386SOL     OW20598   3.896   7.565   3.343 -0.4166 -0.3638  0.0695
 6386SOL    HW120599   3.884   7.596   3.253 -1.4197  1.1610  0.6791
 6386SOL    HW220600   3.890   7.644   3.396  1.2111 -1.0937  1.4211
 6387SOL     OW20601   1.364   7.740   0.778 -0.1428 -0.2889  0.5560
 6387SOL    HW120602   1.290   7.679   0.775 -2.8643  2.7573 -2.0358
 6387SOL    HW220603   1.380   7.762   0.687  2.2256  1.2446  1.2562
 6388SOL     OW20604   3.586   0.987   1.707  0.8807  0.6827  0.5057
 6388SOL    HW120605   3.608   1.008   1.798  0.5372 -1.2393  1.0888
 6388SOL    HW220606   3.536   1.062   1.676  0.6343  1.1996  2.0624
 6389SOL     OW20607   3.046   7.892   1.624 -0.3385 -0.0722  0.1306
 6389SOL    HW120608   3.050   7.939   1.707 -1.5468 -1.3553  0.9839
 6389SOL    HW220609   3.061   7.958   1.557 -0.9093  1.2980  1.3144
 6390SOL     OW20610   4.123   6.428   2.245  0.1329 -0.1288  0.0801
 6390SOL    HW120611   4.092   6.514   2.217  2.2495  0.0016 -2.2947
 6390SOL    HW220612   4.205   6.446   2.291  0.0482 -0.7962  0.4944
 6391SOL     OW20613   4.947   1.397   3.044  0.1420 -0.5711  0.8820
 6391SOL    HW120614   4.855   1.421   3.053  0.4166  1.6252 -1.0097
 6391SOL    HW220615   4.994   1.461   3.098  0.6457  0.1196 -0.3201
 6392SOL     OW20616   3.211   1.140   0.098  0.1771  0.1972 -0.3510
 6392SOL    HW120617   3.150   1.140   0.024  0.1934 -2.0736 -0.4306
 6392SOL    HW220618   3.181   1.213   0.153 -1.8080 -0.0156 -1.0530
 6393SOL     OW20619   1.662   2.733   1.992  0.1830  0.7223  0.1014
 6393SOL    HW120620   1.605   2.671   1.946 -2.3626  3.0976 -0.1687
 6393SOL    HW220621   1.674   2.694   2.079  1.0881 -1.4917 -0.9364
 6394SOL     OW20622   4.082   2.053   2.368 -0.7053 -0.1825 -0.0696
 6394SOL    HW120623   3.990   2.026   2.371 -0.9571  0.6617  0.3483
 6394SOL    HW220624   4.080   2.139   2.325  0.1131 -0.9534 -1.7248
 6395SOL     OW20625   4.571   0.916   1.362  0.4434  0.2058 -0.2603
 6395SOL    HW120626   4.540   1.004   1.382 -1.4888 -0.8059  1.7229
 6395SOL    HW220627   4.568   0.910   1.267 -0.8837  1.7819 -0.3599
 6396SOL     OW20628   3.528   7.853   2.790  0.6696  0.5785  0.0906
 6396SOL    HW120629   3.579   7.774   2.810  1.6861  0.9711 -0.8500
 6396SOL    HW220630   3.554   7.877   2.702 -0.1349  1.5986  0.1087
 6397SOL     OW20631   2.632   0.540   2.675 -0.8154  0.6261 -0.2567
 6397SOL    HW120632   2.725   0.518   2.680 -0.6868  0.5783 -2.1340
 6397SOL    HW220633   2.628   0.612   2.612 -1.9355  1.5677  0.8290
 6398SOL     OW20634   4.418   0.061   2.527 -0.1897 -0.1203  0.1710
 6398SOL    HW120635   4.406   0.132   2.591 -0.8901 -0.0110 -0.0689
 6398SOL    HW220636   4.391   0.099   2.444 -0.9759 -0.7819  0.1074
 6399SOL     OW20637   2.591   2.457   1.371  0.2723  0.0638 -0.0641
 6399SOL    HW120638   2.557   2.546   1.372  0.6575  0.2096  0.0187
 6399SOL    HW220639   2.563   2.421   1.286  1.4424  0.7743 -0.7742
 6400SOL     OW20640   3.833   0.727   2.924 -0.3762 -0.1033  0.4097
 6400SOL    HW120641   3.856   0.667   2.995 -0.0509  2.2534  2.4707
 6400SOL    HW220642   3.745   0.757   2.945 -0.1423  0.8833  0.0611
 6401SOL     OW20643   2.862   0.969   3.726  1.0870 -0.0023  0.6076
 6401SOL    HW120644   2.864   0.986   3.632  0.5723  0.6339  0.7106
 6401SOL    HW220645   2.952   0.985   3.755  1.0615  0.5913  0.3637
 6402SOL     OW20646   3.627   7.600   2.847  0.6628  0.4118  0.1276
 6402SOL    HW120647   3.574   7.570   2.773  0.9791  0.2129 -0.0230
 6402SOL    HW220648   3.718   7.583   2.819  0.7870  0.4478  0.5122
 6403SOL     OW20649   3.430   0.291   3.635 -0.3734 -0.2613 -0.1652
 6403SOL    HW120650   3.425   0.197   3.654  0.9958 -0.3839 -0.3403
 6403SOL    HW220651   3.487   0.326   3.703 -1.8478  0.6884  0.6389
 6404SOL     OW20652   3.636   2.667   2.571 -0.0734 -0.6550 -0.5496
 6404SOL    HW120653   3.650   2.577   2.598  1.6373  0.3772  2.4705
 6404SOL    HW220654   3.695   2.719   2.626 -1.6232  2.3999 -1.4911
 6405SOL     OW20655   3.017   0.166   2.612 -0.6100  0.7539  0.0857
 6405SOL    HW120656   3.030   0.250   2.567 -1.4941  0.4385 -0.7915
 6405SOL    HW220657   3.094   0.157   2.668  0.0642  1.6011 -0.6753
 6406SOL     OW20658   4.343   1.344   3.602  0.2576 -0.1403 -0.4514
 6406SOL    HW120659   4.263   1.297   3.626  1.4958 -2.0979  0.0603
 6406SOL    HW220660   4.350   1.331   3.507 -0.0033 -0.0071 -0.4906
 6407SOL     OW20661   0.931   1.818   4.993 -0.1172  0.8919  0.0199
 6407SOL    HW120662   0.938   1.769   5.075 -2.0061 -1.5662 -1.1327
 6407SOL    HW220663   0.963   1.757   4.926 -2.9294  0.9660 -1.5509
 6408SOL     OW20664   5.054   0.577   3.877  0.1558 -0.1906 -0.0993
 6408SOL    HW120665   5.087   0.667   3.869 -1.1940  0.4373  0.9170
 6408SOL    HW220666   5.026   0.553   3.789 -1.0983  1.0872 -0.0916
 6409SOL     OW20667   2.452   0.416   2.856  0.3632 -0.4650 -0.3730
 6409SOL    HW120668   2.516   0.463   2.801  1.6167  2.5560  3.2064
 6409SOL    HW220669   2.489   0.329   2.867  0.9025 -0.6210 -2.8427
 6410SOL     OW20670   4.411   0.748   3.773 -0.5030  0.3249  0.2996
 6410SOL    HW120671   4.331   0.763   3.825 -0.3485  2.3582  0.0082
 6410SOL    HW220672   4.467   0.696   3.830 -1.3775  0.3028  1.1636
 6411SOL     OW20673   4.090   6.897   1.819 -0.1463 -0.5251 -0.1362
 6411SOL    HW120674   4.159   6.838   1.790  2.1491  1.7024  0.4231
 6411SOL    HW220675   4.077   6.958   1.745  0.9103  1.0649  0.9322
 6412SOL     OW20676   2.962   1.902   2.873  0.3024  0.0502 -0.2095
 6412SOL    HW120677   3.003   1.958   2.808  2.1112 -2.8335 -1.7908
 6412SOL    HW220678   3.031   1.887   2.938 -0.7948  1.1532  1.2704
 6413SOL     OW20679   3.808   1.751   2.827  0.3683 -0.1853  0.1364
 6413SOL    HW120680   3.824   1.790   2.741  0.4494 -0.7079 -0.0924
 6413SOL    HW220681   3.895   1.745   2.867  0.1556  1.4772  0.8906
 6414SOL     OW20682   3.025   7.010   2.650 -0.4702  0.1758  0.1869
 6414SOL    HW120683   3.076   6.929   2.654 -0.2845  0.3494  2.0999
 6414SOL    HW220684   2.955   6.999   2.714 -1.0681  1.1233 -0.2723
 6415SOL     OW20685   4.595   7.817   3.208  0.2823  0.0824 -0.2756
 6415SOL    HW120686   4.591   7.799   3.302  0.4761  0.3151 -0.2230
 6415SOL    HW220687   4.616   7.911   3.203 -1.0654  0.3941 -0.5348
 6416SOL     OW20688   0.296   1.632   2.918  0.0156 -0.2330  0.5216
 6416SOL    HW120689   0.207   1.656   2.945 -0.6553 -2.1847  0.1571
 6416SOL    HW220690   0.301   1.538   2.933  1.4763 -0.4281 -0.9972
 6417SOL     OW20691   1.695   0.329   2.376 -0.0132 -0.4619 -0.3555
 6417SOL    HW120692   1.613   0.279   2.374 -0.4289  0.1009  0.9442
 6417SOL    HW220693   1.667   0.420   2.366  0.2254 -0.0953  1.8140
 6418SOL     OW20694   4.214   1.981   3.719  0.4247 -0.0685  0.5353
 6418SOL    HW120695   4.145   1.936   3.767 -0.9209  1.4076  0.0670
 6418SOL    HW220696   4.295   1.956   3.764 -0.5634 -0.5416  2.1196
 6419SOL     OW20697   3.434   7.627   0.965 -0.6440 -0.1710 -0.1496
 6419SOL    HW120698   3.418   7.680   0.887 -0.2971  0.7754  0.4091
 6419SOL    HW220699   3.353   7.577   0.977 -1.4874  1.1798  0.0397
 6420SOL     OW20700   3.344   1.469   2.314 -0.5441 -0.4478 -0.0249
 6420SOL    HW120701   3.282   1.483   2.242  0.2179  2.0148 -0.2758
 6420SOL    HW220702   3.430   1.481   2.274 -0.1227  2.1771  1.4308
 6421SOL     OW20703   3.651   7.821   3.696  0.5802  0.0605  0.1572
 6421SOL    HW120704   3.652   7.731   3.664  1.7315 -1.4397  3.8329
 6421SOL    HW220705   3.633   7.813   3.789  0.2828  3.7204  0.5627
 6422SOL     OW20706   3.124   1.214   3.082 -0.0298 -0.2244  0.1913
 6422SOL    HW120707   3.182   1.243   3.012 -1.3468 -0.2050 -0.9411
 6422SOL    HW220708   3.181   1.206   3.158  1.4983 -0.4489 -0.9148
 6423SOL     OW20709   4.348   1.377   5.295 -0.2162  0.4929 -0.0138
 6423SOL    HW120710   4.430   1.414   5.329  0.3588  0.5624 -1.3935
 6423SOL    HW220711   4.351   1.285   5.318  0.5290  0.3797 -0.5198
 6424SOL     OW20712   4.143   1.169   5.043  0.0937 -0.4174  0.1977
 6424SOL    HW120713   4.224   1.137   5.002  0.4910 -0.7978  1.2513
 6424SOL    HW220714   4.103   1.090   5.080 -0.6391 -0.1899 -0.1006
 6425SOL     OW20715   2.680   6.846   2.164  0.4936  0.2749  0.2906
 6425SOL    HW120716   2.662   6.801   2.081 -1.9260 -0.2758  1.0453
 6425SOL    HW220717   2.755   6.902   2.145  1.2225 -1.2733 -1.7234
 6426SOL     OW20718   2.182   1.266   2.374 -0.1850 -0.3717  0.0381
 6426SOL    HW120719   2.267   1.308   2.382  0.7111 -1.0807 -3.8058
 6426SOL    HW220720   2.187   1.217   2.292 -3.8102 -1.6880  0.4175
 6427SOL     OW20721   5.169   2.545   2.099 -0.6657 -0.0684 -0.2109
 6427SOL    HW120722   5.180   2.625   2.049 -0.0940  0.8697  1.3333
 6427SOL    HW220723   5.259   2.517   2.120 -0.8863 -0.3095  0.4637
 6428SOL     OW20724   3.554   7.987   2.522  0.1594 -0.8333 -0.1597
 6428SOL    HW120725   3.585   7.925   2.456  0.0749 -0.1469 -0.8692
 6428SOL    HW220726   3.479   8.030   2.480  0.7966  0.4095 -0.0742
 6429SOL     OW20727   3.545   0.825   2.977 -0.3615  0.4845 -0.5090
 6429SOL    HW120728   3.535   0.909   2.932 -1.8055 -0.3830 -1.9244
 6429SOL    HW220729   3.514   0.760   2.914  2.1811 -1.3195 -0.0636
 6430SOL     OW20730   2.671   0.435   1.364  0.1352 -0.2570  0.6043
 6430SOL    HW120731   2.593   0.490   1.375 -0.5438 -1.4136  1.9303
 6430SOL    HW220732   2.698   0.415   1.454  1.7175 -0.2463  0.1606
 6431SOL     OW20733   2.078   0.186   1.310  0.1001 -0.4388  0.6009
 6431SOL    HW120734   2.022   0.216   1.381 -0.7543  0.1532 -0.2895
 6431SOL    HW220735   2.033   0.214   1.230  1.2787 -0.6459 -0.1696
 6432SOL     OW20736   1.232   1.761   3.333  0.2152 -0.2169  0.1565
 6432SOL    HW120737   1.297   1.830   3.317  0.4597 -0.2533  0.9227
 6432SOL    HW220738   1.192   1.785   3.417 -0.7230 -0.2388 -0.2718
 6433SOL     OW20739   3.178   1.741   2.966  0.0660  0.0373  0.1925
 6433SOL    HW120740   3.207   1.714   3.053  0.3455 -1.0588 -0.2181
 6433SOL    HW220741   3.233   1.690   2.906 -1.5090 -0.8010 -0.6098
 6434SOL     OW20742   3.325   1.854   2.622 -0.2025 -0.2447 -0.2989
 6434SOL    HW120743   3.242   1.874   2.578 -0.2998 -0.8753 -0.4127
 6434SOL    HW220744   3.345   1.933   2.672 -0.8668 -0.0737 -0.2856
 6435SOL     OW20745   3.002   7.950   3.927  0.7608 -0.9633 -0.1846
 6435SOL    HW120746   3.030   8.024   3.873  2.8766 -1.2768  0.3637
 6435SOL    HW220747   2.945   7.989   3.993  1.9305  0.2337  0.1714
 6436SOL     OW20748   1.127   1.295   1.689 -0.1481  0.0879  0.6028
 6436SOL    HW120749   1.169   1.377   1.662  0.0936 -0.4507 -0.7150
 6436SOL    HW220750   1.037   1.303   1.658 -0.6411  0.5869  2.0647
 6437SOL     OW20751   2.646   1.505   3.918  0.1168 -0.0717  0.2966
 6437SOL    HW120752   2.690   1.588   3.934 -1.0614  0.7619 -0.5673
 6437SOL    HW220753   2.575   1.502   3.982 -2.4590  1.6527 -2.2015
 6438SOL     OW20754   3.663   1.004   6.220  0.7917  0.1587  0.1485
 6438SOL    HW120755   3.740   0.949   6.234  0.9789  0.2693 -0.4082
 6438SOL    HW220756   3.641   0.991   6.128  0.9609  1.1632 -0.0526
 6439SOL     OW20757   3.327   0.102   2.683 -0.1676  0.0478  0.5740
 6439SOL    HW120758   3.316   0.012   2.655  0.7102 -0.6850  2.4144
 6439SOL    HW220759   3.422   0.115   2.689 -0.2386  1.4752 -0.7430
 6440SOL     OW20760   5.049   7.902   4.420  0.4356 -0.3834  0.4181
 6440SOL    HW120761   5.070   7.991   4.391  0.5500 -0.5419 -0.0011
 6440SOL    HW220762   5.118   7.880   4.482  0.1671 -0.0213  0.8464
 6441SOL     OW20763   1.752   2.120   2.086  0.2361 -0.1455  0.2834
 6441SOL    HW120764   1.697   2.042   2.095 -1.0992  0.7509  0.1518
 6441SOL    HW220765   1.809   2.101   2.012  0.2611 -1.1791  0.5502
 6442SOL     OW20766   3.585   0.131   2.835 -0.2715  0.1505  0.1807
 6442SOL    HW120767   3.540   0.187   2.898  0.7449  1.0805  0.1103
 6442SOL    HW220768   3.537   0.048   2.838 -0.8663  0.5132  1.4175
 6443SOL     OW20769   2.940   0.888   3.223  0.3567 -0.0362  0.0404
 6443SOL    HW120770   2.912   0.949   3.155 -1.6713  0.5296  1.3075
 6443SOL    HW220771   2.986   0.941   3.287  1.3085 -0.3931 -0.3215
 6444SOL     OW20772   1.972   1.455   0.740  0.0753  0.1940  0.5096
 6444SOL    HW120773   1.916   1.519   0.783 -0.0393  0.3362  0.1511
 6444SOL    HW220774   1.986   1.490   0.652 -1.0852 -0.9095 -0.1506
 6445SOL     OW20775   1.245   1.393   3.480  0.6619 -0.1264  0.3885
 6445SOL    HW120776   1.156   1.424   3.461  0.8066  1.0050  1.3855
 6445SOL    HW220777   1.232   1.320   3.541  0.4017 -0.4705 -0.0709
 6446SOL     OW20778   4.678   1.682   3.931 -0.1236 -0.6053 -0.4644
 6446SOL    HW120779   4.608   1.635   3.975  1.7112 -0.9999  2.2654
 6446SOL    HW220780   4.719   1.615   3.875 -0.0259 -1.2167  0.3170
 6447SOL     OW20781   3.618   0.668   3.195  0.2911 -0.4413  0.1346
 6447SOL    HW120782   3.570   0.722   3.132 -3.2595 -1.5135  1.6773
 6447SOL    HW220783   3.683   0.727   3.233 -0.4883  1.4644 -1.3338
 6448SOL     OW20784   3.369   2.028   2.829  0.4532  0.1287 -0.3381
 6448SOL    HW120785   3.298   2.068   2.880  0.8851  1.7904 -0.9639
 6448SOL    HW220786   3.403   1.959   2.885 -2.2220 -1.3319 -0.3805
 6449SOL     OW20787   2.682   1.366   2.803 -0.3340 -0.0297  0.1922
 6449SOL    HW120788   2.622   1.413   2.745 -1.3564  0.3315  1.4863
 6449SOL    HW220789   2.762   1.356   2.752 -0.6530  1.6676 -0.7122
 6450SOL     OW20790   2.941   2.378   2.277  0.2141  0.7204 -0.1203
 6450SOL    HW120791   2.900   2.311   2.331  1.3437 -0.0340 -0.1501
 6450SOL    HW220792   2.915   2.461   2.316 -0.9022  0.2591  0.1461
 6451SOL     OW20793   2.606   2.021   3.486  0.1930  0.2079  0.0428
 6451SOL    HW120794   2.659   2.076   3.428 -0.6462  0.5980 -0.3702
 6451SOL    HW220795   2.622   1.932   3.454  0.5090  0.3300 -0.1497
 6452SOL     OW20796   3.838   0.462   1.047  0.3534  0.3618 -0.3355
 6452SOL    HW120797   3.842   0.558   1.046  1.9693  0.3536  0.5646
 6452SOL    HW220798   3.751   0.441   1.082 -0.7730  1.4452 -2.3427
 6453SOL     OW20799   3.335   3.298   3.315  0.2197 -0.5678 -0.0165
 6453SOL    HW120800   3.351   3.223   3.374 -1.0339  0.0837  1.2167
 6453SOL    HW220801   3.410   3.355   3.329 -0.1040 -0.3756  1.0710
 6454SOL     OW20802   2.572   1.669   2.703  0.2407 -0.3797  0.7930
 6454SOL    HW120803   2.606   1.735   2.642 -1.6926  0.2072  0.2947
 6454SOL    HW220804   2.649   1.641   2.752  1.6345  0.1080 -0.9888
 6455SOL     OW20805   3.537   0.826   1.205  0.1781 -0.1241  0.2093
 6455SOL    HW120806   3.483   0.874   1.268 -0.9228  0.2925 -1.0007
 6455SOL    HW220807   3.519   0.734   1.222  0.0234 -0.0222  0.6028
 6456SOL     OW20808   2.546   3.624   3.004  0.8079 -0.0384 -0.0536
 6456SOL    HW120809   2.633   3.590   3.025  0.4473 -0.2788  1.1805
 6456SOL    HW220810   2.500   3.625   3.088 -0.5640 -0.4349 -0.7660
 6457SOL     OW20811   3.510   1.558   1.551 -0.2828  0.3996  0.1562
 6457SOL    HW120812   3.476   1.469   1.537 -0.0803  0.3895 -0.2669
 6457SOL    HW220813   3.485   1.606   1.472 -0.8116  0.8521  0.5891
 6458SOL     OW20814   3.143   2.652   2.481 -0.9221  0.0507 -0.3388
 6458SOL    HW120815   3.227   2.673   2.521  0.8738 -0.9620 -3.2192
 6458SOL    HW220816   3.113   2.574   2.528  0.3617 -0.2733 -0.0071
 6459SOL     OW20817   3.281   7.008   1.938 -1.1666  0.4654  0.0537
 6459SOL    HW120818   3.303   7.024   1.846 -0.1599  2.0957  0.5168
 6459SOL    HW220819   3.295   7.093   1.980 -1.1134 -0.3679  1.7994
 6460SOL     OW20820   3.037   0.010   2.390 -0.3936  0.5978  0.4332
 6460SOL    HW120821   3.040   0.041   2.481  0.6375 -0.0547  0.6444
 6460SOL    HW220822   2.948  -0.022   2.378 -0.3649  0.1226  1.4165
 6461SOL     OW20823   4.063   2.801   2.689  0.1350 -0.0873  0.1597
 6461SOL    HW120824   4.091   2.876   2.742  0.0459 -0.4566  0.7396
 6461SOL    HW220825   3.986   2.768   2.733 -0.1885 -0.1528 -0.4427
 6462SOL     OW20826   2.030   1.795   2.069  0.0628 -0.3020 -0.3393
 6462SOL    HW120827   2.037   1.885   2.035  0.7035 -0.0678  0.3788
 6462SOL    HW220828   2.076   1.798   2.153  0.1778 -1.3333 -0.3569
 6463SOL     OW20829   4.503   1.195   1.437  0.0093 -0.2185 -0.0353
 6463SOL    HW120830   4.584   1.241   1.416  0.1425  0.4909  1.8665
 6463SOL    HW220831   4.445   1.213   1.363  1.1616  0.2964 -0.8332
 6464SOL     OW20832   3.906   0.814   1.992 -0.4282 -0.9869 -0.7130
 6464SOL    HW120833   3.812   0.818   2.010 -0.2824  0.8310 -0.2014
 6464SOL    HW220834   3.914   0.841   1.900 -0.2912  0.7516 -0.2259
 6465SOL     OW20835   3.051   1.036   2.746 -0.1283  0.2542  0.4337
 6465SOL    HW120836   3.031   1.113   2.694  2.0574  0.9908  0.6033
 6465SOL    HW220837   3.144   1.043   2.766  0.1316 -2.3479  0.5793
 6466SOL     OW20838   4.808   1.817   3.157  0.1556  0.3087 -0.5154
 6466SOL    HW120839   4.761   1.766   3.092  1.6767 -1.5106 -0.2852
 6466SOL    HW220840   4.795   1.908   3.131 -0.7765 -0.2908 -2.2719
 6467SOL     OW20841   2.584   3.094   1.834  0.2059 -0.0835 -0.2617
 6467SOL    HW120842   2.606   3.149   1.759 -2.4101  1.6952  0.1471
 6467SOL    HW220843   2.632   3.132   1.907  0.3960  0.0518 -0.4555
 6468SOL     OW20844   2.446   7.191   1.755 -0.0317 -0.0760  0.4963
 6468SOL    HW120845   2.426   7.193   1.848  0.5242 -0.0065  0.6188
 6468SOL    HW220846   2.512   7.260   1.743 -0.2800  0.0792  0.0114
 6469SOL     OW20847   1.257   1.417   2.534  0.1071 -0.1827 -0.6438
 6469SOL    HW120848   1.322   1.371   2.588 -0.6707  1.0895  1.5246
 6469SOL    HW220849   1.274   1.509   2.551  0.1863  0.3119 -3.1258
 6470SOL     OW20850   5.183   0.300   3.939  0.6559 -0.3267  0.0460
 6470SOL    HW120851   5.119   0.360   3.978 -0.5549 -1.4687 -0.1191
 6470SOL    HW220852   5.245   0.281   4.009 -0.5731 -1.0950  0.9503
 6471SOL     OW20853   2.225   1.694   2.831  0.3154  0.1523 -0.5619
 6471SOL    HW120854   2.251   1.680   2.740  0.9546 -0.2966 -0.3182
 6471SOL    HW220855   2.224   1.606   2.870  2.3075  0.5098  0.4419
 6472SOL     OW20856   1.991   0.994   3.066  0.0281  0.1811 -0.3976
 6472SOL    HW120857   1.979   0.988   3.161 -1.2083 -0.4239 -0.5710
 6472SOL    HW220858   2.033   0.911   3.042  0.5851  0.4459 -0.3544
 6473SOL     OW20859   3.087   1.890   2.113 -0.6135 -0.0857 -0.3777
 6473SOL    HW120860   3.021   1.956   2.134 -0.3901  0.9354 -2.5942
 6473SOL    HW220861   3.065   1.862   2.024  0.6718 -1.3202 -0.3426
 6474SOL     OW20862   1.766   0.158   1.971  0.3298  0.4246 -0.0136
 6474SOL    HW120863   1.715   0.077   1.965 -0.2399  0.6423  1.5567
 6474SOL    HW220864   1.838   0.145   1.908  1.0109 -1.8555  1.1205
 6475SOL     OW20865   3.962   7.903   0.514 -0.0003 -0.0312  0.0159
 6475SOL    HW120866   4.039   7.958   0.501 -0.8945  2.2390  3.1549
 6475SOL    HW220867   3.908   7.919   0.436  1.4710  0.4792 -0.9435
 6476SOL     OW20868   3.158   7.602   1.009  0.1929  0.5243  0.1229
 6476SOL    HW120869   3.106   7.597   0.929  1.0696 -0.3463 -0.4153
 6476SOL    HW220870   3.162   7.695   1.029  0.2746  0.7940 -1.0701
 6477SOL     OW20871   3.264   1.352   1.351  0.3407 -0.0288  0.1346
 6477SOL    HW120872   3.228   1.427   1.399  1.2471  0.1737  0.5216
 6477SOL    HW220873   3.323   1.309   1.414  2.7133  1.0917 -1.2022
 6478SOL     OW20874   3.770   0.953   4.400 -0.4035 -0.3942 -0.1586
 6478SOL    HW120875   3.744   1.023   4.460  1.7715  1.9841 -1.7503
 6478SOL    HW220876   3.752   0.989   4.313  2.2811 -1.0427 -1.0959
 6479SOL     OW20877   2.994   1.298   4.657  0.0307 -0.0702 -0.0426
 6479SOL    HW120878   3.055   1.292   4.584 -2.0039 -1.2852 -1.7538
 6479SOL    HW220879   2.986   1.392   4.674 -0.3538  0.3220 -2.1997
 6480SOL     OW20880   4.601   0.191   2.276 -0.7788 -0.8205  0.9520
 6480SOL    HW120881   4.531   0.234   2.325  0.2332 -0.3985  2.0904
 6480SOL    HW220882   4.675   0.188   2.338  0.5241 -0.3450 -0.5113
 6481SOL     OW20883   1.616   2.360   3.739 -0.1493 -0.0265 -0.2929
 6481SOL    HW120884   1.634   2.438   3.688 -0.1780  0.8819  1.0270
 6481SOL    HW220885   1.638   2.385   3.829 -0.6120 -1.3865  0.2226
 6482SOL     OW20886   3.028   2.773   4.116  0.1091 -0.1321  0.0008
 6482SOL    HW120887   2.934   2.782   4.131  0.1023  0.7985 -0.5311
 6482SOL    HW220888   3.068   2.838   4.174  0.2033  1.9116 -2.1969
 6483SOL     OW20889   4.449   1.173   2.702  0.2313  0.1402 -0.3701
 6483SOL    HW120890   4.413   1.184   2.614 -2.2994  0.7494  0.6463
 6483SOL    HW220891   4.387   1.114   2.745  1.0209  0.4242  1.2026
 6484SOL     OW20892   2.616   0.502   1.784 -0.0545  0.2725  0.4005
 6484SOL    HW120893   2.690   0.480   1.728 -1.5607 -2.4738 -0.7320
 6484SOL    HW220894   2.547   0.529   1.723 -1.0749 -0.7508  1.0534
 6485SOL     OW20895   2.809   7.859   2.679  0.2534  0.4075  0.2987
 6485SOL    HW120896   2.839   7.875   2.769  0.3393 -1.1038  0.5652
 6485SOL    HW220897   2.884   7.818   2.636 -0.3548 -0.4639  0.0480
 6486SOL     OW20898   5.091   0.826   3.486 -0.1016  0.3633  0.5167
 6486SOL    HW120899   5.133   0.836   3.401 -0.3621  1.0203  0.4655
 6486SOL    HW220900   5.102   0.733   3.507  1.9977  0.6192  0.8201
 6487SOL     OW20901   4.064   0.141   2.810  0.2236  0.4575 -0.1243
 6487SOL    HW120902   4.141   0.197   2.805  0.8441 -0.3212  0.3959
 6487SOL    HW220903   4.087   0.064   2.756 -0.3954  0.4476 -0.3853
 6488SOL     OW20904   4.112   7.276   3.095 -0.1829 -0.1331 -0.2786
 6488SOL    HW120905   4.096   7.370   3.092 -3.0578 -0.5020  0.1518
 6488SOL    HW220906   4.203   7.266   3.068 -0.0480  2.6762 -1.1935
 6489SOL     OW20907   2.653   1.174   2.973  0.2902  0.0027 -0.0893
 6489SOL    HW120908   2.730   1.141   3.020  1.5359  2.0585 -0.5578
 6489SOL    HW220909   2.689   1.225   2.901 -1.4533  2.1060  0.4139
 6490SOL     OW20910   3.433   2.166   1.091  0.8198 -0.3891 -0.2023
 6490SOL    HW120911   3.346   2.181   1.127  0.7788 -0.4658 -0.2697
 6490SOL    HW220912   3.421   2.097   1.026  1.1885 -1.4735  0.8562
 6491SOL     OW20913   3.950   7.964   1.769  0.2689 -0.4995  0.0144
 6491SOL    HW120914   3.977   8.023   1.840 -0.9306  0.1322 -0.0262
 6491SOL    HW220915   3.966   8.015   1.689 -2.4101  0.5706  0.0373
 6492SOL     OW20916   3.262   1.552   3.212 -0.3809 -0.0137 -0.7351
 6492SOL    HW120917   3.302   1.616   3.271  1.8151 -2.3156  0.4318
 6492SOL    HW220918   3.331   1.531   3.150 -1.4597 -0.4418 -1.8354
 6493SOL     OW20919   3.892   2.167   5.138  0.0520  0.3400 -0.5694
 6493SOL    HW120920   3.952   2.097   5.112  2.0809  1.7766  0.0220
 6493SOL    HW220921   3.888   2.161   5.233 -1.0620  0.0489 -0.6235
 6494SOL     OW20922   7.958   2.192   3.647  0.3728 -0.2444 -0.4558
 6494SOL    HW120923   8.029   2.170   3.708 -0.7732 -3.3212 -0.0412
 6494SOL    HW220924   7.908   2.260   3.692  0.8646 -0.8045  1.0129
 6495SOL     OW20925   2.401   1.295   3.730  0.2178 -0.1654  0.7689
 6495SOL    HW120926   2.341   1.302   3.804 -0.2329 -2.6107  0.6948
 6495SOL    HW220927   2.345   1.303   3.653  0.2526 -0.5559  0.7006
 6496SOL     OW20928   3.818   0.631   2.627  0.2626  0.2263  0.1574
 6496SOL    HW120929   3.724   0.631   2.645 -0.0098  2.3161 -1.0372
 6496SOL    HW220930   3.825   0.611   2.533  0.9982  0.3097  0.1851
 6497SOL     OW20931   3.775   0.480   0.042 -0.1934 -0.3377  0.3415
 6497SOL    HW120932   3.858   0.434   0.053  0.4828  0.9986  0.9349
 6497SOL    HW220933   3.762   0.481  -0.053 -0.2016 -1.6718  0.3020
 6498SOL     OW20934   2.955   1.010   1.791 -0.0880 -0.3850 -0.2466
 6498SOL    HW120935   2.945   1.054   1.875  0.0646 -0.5854 -0.1243
 6498SOL    HW220936   3.044   1.031   1.764  0.0581 -0.7967 -0.0872
 6499SOL     OW20937   2.955   1.731   3.478 -0.2718 -0.1582 -0.7240
 6499SOL    HW120938   3.020   1.777   3.425 -0.5648  1.0076 -0.1092
 6499SOL    HW220939   2.929   1.656   3.424  1.7818 -0.8206 -0.8428
 6500SOL     OW20940   2.058   1.289   1.521 -0.7524  0.5715 -0.2042
 6500SOL    HW120941   2.095   1.307   1.608 -1.7282  0.0872  0.3277
 6500SOL    HW220942   2.009   1.368   1.500  0.9126  1.4096 -1.1220
 6501SOL     OW20943   5.076   0.146   2.330  0.1852 -0.1743  0.2016
 6501SOL    HW120944   5.030   0.178   2.252  1.1428 -2.0667 -1.2466
 6501SOL    HW220945   5.159   0.112   2.296  1.7982  1.2416  2.4432
 6502SOL     OW20946   3.014   0.236   4.088 -0.1048  0.7392  0.1955
 6502SOL    HW120947   2.963   0.191   4.155  0.1693 -1.6316 -1.0536
 6502SOL    HW220948   2.962   0.313   4.065 -1.8737 -0.2447  0.7364
 6503SOL     OW20949   1.795   3.351   0.969  0.2548 -0.3759 -0.4788
 6503SOL    HW120950   1.747   3.271   0.948 -1.7264  0.7293 -0.4014
 6503SOL    HW220951   1.749   3.387   1.045  1.2466  0.7394 -0.3810
 6504SOL     OW20952   1.950   1.775   4.305 -0.4000  0.7273 -0.6375
 6504SOL    HW120953   1.942   1.868   4.284  2.5706  1.2116 -0.1964
 6504SOL    HW220954   2.035   1.750   4.269 -0.6376 -1.5317  0.2172
 6505SOL     OW20955   5.357   7.804   2.478 -0.0798  0.1782 -0.0475
 6505SOL    HW120956   5.346   7.874   2.413 -0.2784  0.6627  0.4941
 6505SOL    HW220957   5.450   7.782   2.475 -0.2146 -0.3065 -0.9944
 6506SOL     OW20958   3.845   7.914   2.259  0.2405 -0.7245 -0.1963
 6506SOL    HW120959   3.811   7.843   2.313 -0.2010 -1.9694 -1.9982
 6506SOL    HW220960   3.767   7.961   2.229  0.3565 -0.9783 -0.9293
 6507SOL     OW20961   2.859   7.887   2.007  0.2667 -0.2654  0.0718
 6507SOL    HW120962   2.844   7.795   2.030  0.0625 -0.2018  0.2021
 6507SOL    HW220963   2.774   7.917   1.973  0.0109  0.1764  1.0692
 6508SOL     OW20964   1.744   2.694   2.547 -0.1677  0.1533  0.3284
 6508SOL    HW120965   1.837   2.676   2.559  0.2612  2.0386  0.2405
 6508SOL    HW220966   1.741   2.786   2.520 -1.8875 -0.5160 -2.1801
 6509SOL     OW20967   1.300   1.377   2.977 -0.4531 -0.0332 -0.4872
 6509SOL    HW120968   1.290   1.460   3.023 -0.5841 -0.1226 -0.3554
 6509SOL    HW220969   1.211   1.351   2.955 -0.4058 -0.0913 -0.6165
 6510SOL     OW20970   2.658   1.773   3.781  0.4422 -0.5276 -0.3068
 6510SOL    HW120971   2.732   1.734   3.827  0.7926  1.2756  0.7316
 6510SOL    HW220972   2.695   1.845   3.731 -0.8238  2.1026  2.2476
 6511SOL     OW20973   2.688   2.285   3.924 -0.4626  0.3119  0.4400
 6511SOL    HW120974   2.624   2.248   3.863  0.8203 -1.2063 -0.0546
 6511SOL    HW220975   2.762   2.309   3.868 -0.1062  0.8835  1.1537
 6512SOL     OW20976   0.862   0.582   4.635 -0.3586 -0.5371  0.1086
 6512SOL    HW120977   0.799   0.536   4.691 -2.4981  1.7692 -0.1994
 6512SOL    HW220978   0.808   0.639   4.581  1.9588  0.4977 -1.2699
 6513SOL     OW20979   1.898   7.468   5.438  0.5346 -0.0630  0.0033
 6513SOL    HW120980   1.960   7.459   5.366 -0.6271  1.7470 -1.3343
 6513SOL    HW220981   1.813   7.444   5.400  0.2053 -1.3328  1.4442
 6514SOL     OW20982   4.349   1.440   3.838  0.5350  0.2962  0.0435
 6514SOL    HW120983   4.356   1.394   3.755 -0.9050 -1.9005  1.0317
 6514SOL    HW220984   4.255   1.442   3.857  0.7215  1.9131  1.0283
 6515SOL     OW20985   3.029   2.898   4.959 -0.0979 -0.4846 -0.0051
 6515SOL    HW120986   3.084   2.838   4.909 -0.1547 -0.2029 -0.4087
 6515SOL    HW220987   2.990   2.956   4.893 -0.0969 -0.0471  0.3737
 6516SOL     OW20988   4.238   2.619   4.558 -0.0873 -0.1334 -0.0935
 6516SOL    HW120989   4.286   2.610   4.476  0.6202 -1.0351  0.4023
 6516SOL    HW220990   4.270   2.702   4.595  1.0666 -0.6889  0.1988
 6517SOL     OW20991   2.683   0.904   4.230 -0.3886 -0.5893  0.4691
 6517SOL    HW120992   2.619   0.840   4.199 -1.0292  0.0127  0.5166
 6517SOL    HW220993   2.768   0.862   4.217 -0.6822 -0.7093 -1.3170
 6518SOL     OW20994   1.490   5.587   4.945 -0.5670 -0.3632 -0.7405
 6518SOL    HW120995   1.572   5.538   4.943 -0.3435  0.0005 -0.6242
 6518SOL    HW220996   1.424   5.524   4.916 -0.4565 -1.0523  0.4171
 6519SOL     OW20997   0.426   0.111   4.244  0.0789  0.5112  0.5391
 6519SOL    HW120998   0.435   0.162   4.163  1.4700 -0.1392  0.2609
 6519SOL    HW220999   0.360   0.158   4.295 -2.0558  0.0837 -1.6219
 6520SOL     OW21000   0.962   2.994   5.074 -0.0381 -0.1811  0.6513
 6520SOL    HW121001   1.014   3.056   5.126  3.8947 -1.5338 -1.2137
 6520SOL    HW221002   0.972   2.911   5.121  1.5215 -0.9073 -0.8514
 6521SOL     OW21003   4.354   6.991   4.511  0.1638  0.0118 -0.2524
 6521SOL    HW121004   4.411   6.947   4.447 -1.2326  0.3571 -1.7929
 6521SOL    HW221005   4.407   6.995   4.590  1.7147 -1.0672 -1.1664
 6522SOL     OW21006   1.519   2.898   5.662 -0.0104 -0.0415  0.1808
 6522SOL    HW121007   1.501   2.992   5.670 -2.0056 -0.5240  3.3106
 6522SOL    HW221008   1.479   2.873   5.579 -1.9697  1.4440  0.6031
 6523SOL     OW21009   1.716   7.993   5.332  0.2395  0.4322 -0.3881
 6523SOL    HW121010   1.651   8.009   5.264  0.0819  0.7092 -0.1724
 6523SOL    HW221011   1.737   8.080   5.367  1.7591  0.5214 -1.3972
 6524SOL     OW21012   4.443   0.251   5.835 -1.0250  0.0424  0.5644
 6524SOL    HW121013   4.481   0.168   5.864 -1.8196 -0.8529 -0.8595
 6524SOL    HW221014   4.515   0.296   5.793 -0.3259  0.5609  2.2297
 6525SOL     OW21015   3.257   2.159   4.735 -0.1712 -0.0261 -0.2500
 6525SOL    HW121016   3.291   2.207   4.660 -0.0239  0.6906  0.2607
 6525SOL    HW221017   3.265   2.221   4.808 -1.2645 -0.3377  0.1528
 6526SOL     OW21018   2.194   0.362   2.810  0.1479  0.0919  0.5289
 6526SOL    HW121019   2.282   0.382   2.840  0.1777 -1.9197  2.0091
 6526SOL    HW221020   2.170   0.282   2.858 -1.8356 -0.3560 -1.0791
 6527SOL     OW21021   3.130   1.210   2.437 -0.1891  0.1599  0.0637
 6527SOL    HW121022   3.214   1.246   2.468  1.3195 -1.1872 -2.1592
 6527SOL    HW221023   3.082   1.287   2.406 -0.8813  1.2711  3.4572
 6528SOL     OW21024   2.050   0.229   3.263 -0.4354  0.4112 -0.4112
 6528SOL    HW121025   2.085   0.307   3.221 -0.7232  0.2745 -0.9092
 6528SOL    HW221026   2.029   0.257   3.352  0.6451  0.5740 -0.1904
 6529SOL     OW21027   3.102   1.236   5.132 -0.3168 -0.6275 -0.0414
 6529SOL    HW121028   3.147   1.184   5.199  2.5162  0.9898 -0.5283
 6529SOL    HW221029   3.017   1.193   5.122 -0.0669 -2.1748  3.0604
 6530SOL     OW21030   1.290   7.576   6.149  0.0855  0.2504 -0.6231
 6530SOL    HW121031   1.330   7.608   6.068 -0.8474 -0.3393 -1.3487
 6530SOL    HW221032   1.355   7.593   6.217  0.6363  1.3359 -1.3926
 6531SOL     OW21033   3.801   1.276   5.740 -0.5815 -0.1445  0.0407
 6531SOL    HW121034   3.746   1.273   5.661 -0.8259 -0.8735  0.2305
 6531SOL    HW221035   3.873   1.335   5.717  1.0966 -2.7268 -1.8736
 6532SOL     OW21036   2.929   2.750   2.981 -0.5642  0.4248  0.2645
 6532SOL    HW121037   2.909   2.670   3.029  1.1262  0.8243  1.7662
 6532SOL    HW221038   2.931   2.818   3.049  1.2442  1.1396 -0.4448
 6533SOL     OW21039   2.907   2.359   3.786  0.2677  0.0207  0.4491
 6533SOL    HW121040   2.939   2.303   3.716  1.7098  0.9770  0.3117
 6533SOL    HW221041   2.913   2.448   3.750 -0.9147  0.3756  1.0677
 6534SOL     OW21042   2.611   1.856   2.502 -0.0284  0.6156 -0.9939
 6534SOL    HW121043   2.703   1.871   2.524 -0.0868  0.3567 -0.5644
 6534SOL    HW221044   2.612   1.836   2.408  0.5632 -1.0001 -0.6720
 6535SOL     OW21045   4.227   1.299   4.378 -0.2178 -0.0667 -0.2215
 6535SOL    HW121046   4.172   1.368   4.414 -0.6469 -0.7845  0.5641
 6535SOL    HW221047   4.184   1.273   4.297 -0.1732  0.4311 -0.4058
 6536SOL     OW21048   4.159   0.833   3.890  0.4256  0.1635  0.1842
 6536SOL    HW121049   4.080   0.793   3.852 -0.2470 -0.0326  1.7334
 6536SOL    HW221050   4.163   0.920   3.850 -0.0381 -0.1693 -0.6167
 6537SOL     OW21051   0.532   0.417   5.373  0.1443  0.0353 -0.2764
 6537SOL    HW121052   0.613   0.369   5.392  0.7235  0.8137 -0.6953
 6537SOL    HW221053   0.497   0.440   5.459 -0.1302 -1.1021 -0.0731
 6538SOL     OW21054   1.944   1.004   4.114  0.2098  0.1841  0.9812
 6538SOL    HW121055   1.980   1.086   4.148 -1.7610  0.7929  1.7624
 6538SOL    HW221056   1.948   1.013   4.019 -0.6107  1.5357  1.0414
 6539SOL     OW21057   3.308   1.585   7.072  0.2620  0.0847 -0.0615
 6539SOL    HW121058   3.236   1.632   7.113 -1.2087 -1.0883 -1.1804
 6539SOL    HW221059   3.384   1.602   7.128 -1.0298  0.7763  1.5303
 6540SOL     OW21060   3.628   0.998   5.049 -0.2728  0.0154  0.2295
 6540SOL    HW121061   3.575   0.924   5.075  0.0337  0.0192  0.9006
 6540SOL    HW221062   3.566   1.061   5.013 -0.8162  0.2567  1.5269
 6541SOL     OW21063   2.566   6.957   5.500  0.5885  0.2210 -0.1924
 6541SOL    HW121064   2.642   6.903   5.475  0.1547 -0.5909  0.1931
 6541SOL    HW221065   2.533   6.991   5.417 -0.4988 -1.9948 -0.7636
 6542SOL     OW21066   6.324   1.048   2.717  0.2330  0.3005 -0.5151
 6542SOL    HW121067   6.232   1.023   2.704  0.4385 -0.4444 -0.5432
 6542SOL    HW221068   6.326   1.082   2.807 -0.0690  0.3306 -0.5166
 6543SOL     OW21069   4.160   0.889   6.572 -0.8165 -0.4654 -0.2125
 6543SOL    HW121070   4.074   0.856   6.546 -0.8126 -0.2790 -0.4669
 6543SOL    HW221071   4.144   0.935   6.655 -0.9046 -0.6942 -0.1028
 6544SOL     OW21072   4.712   0.465   4.857  0.1351  0.2591  0.2752
 6544SOL    HW121073   4.693   0.383   4.903  3.4014 -0.8782 -0.1328
 6544SOL    HW221074   4.745   0.523   4.926 -1.5185  1.0513  0.4418
 6545SOL     OW21075   4.198   1.738   6.100 -0.1057 -0.3085 -0.1081
 6545SOL    HW121076   4.145   1.770   6.027  1.1138 -1.7336 -1.7034
 6545SOL    HW221077   4.171   1.647   6.110  0.9079 -0.6004  0.0899
 6546SOL     OW21078   2.523   7.961   5.598  0.2687  0.5356 -0.1484
 6546SOL    HW121079   2.443   8.013   5.601 -0.5250 -0.4596 -2.1172
 6546SOL    HW221080   2.571   7.995   5.522  1.6548  0.9779  0.8704
 6547SOL     OW21081   4.794   0.604   5.056 -0.5489  0.0954 -0.0309
 6547SOL    HW121082   4.829   0.690   5.077  0.7582 -0.3975 -0.0487
 6547SOL    HW221083   4.853   0.543   5.101 -1.1743 -0.7991 -0.3889
 6548SOL     OW21084   2.909   1.076   2.994 -0.0814  0.1537 -0.1520
 6548SOL    HW121085   2.945   1.011   2.934  1.8096 -1.3527  2.3699
 6548SOL    HW221086   2.983   1.130   3.019 -0.9675  1.2148  0.2556
 6549SOL     OW21087   3.363   0.983   6.196 -0.0609  0.1519 -0.1612
 6549SOL    HW121088   3.453   0.997   6.227  0.2040  2.6992 -1.8097
 6549SOL    HW221089   3.314   0.958   6.275  1.4590  1.9062  1.4519
 6550SOL     OW21090   3.647   0.581   5.175  0.0275  0.4225 -0.0539
 6550SOL    HW121091   3.719   0.644   5.181  0.6506 -0.0457 -1.9395
 6550SOL    HW221092   3.658   0.525   5.251  0.5819  1.4256  0.6379
 6551SOL     OW21093   4.560   1.658   6.979 -0.2591  0.4209 -0.1395
 6551SOL    HW121094   4.628   1.681   7.042  0.7016 -0.5312 -0.7945
 6551SOL    HW221095   4.600   1.675   6.893 -0.7009 -0.4965 -0.5385
 6552SOL     OW21096   2.605   7.439   6.264 -0.3851 -0.3198 -0.4890
 6552SOL    HW121097   2.617   7.344   6.259 -1.4696 -0.7048  2.4176
 6552SOL    HW221098   2.684   7.475   6.224  0.4153 -2.4282 -0.9635
 6553SOL     OW21099   3.087   7.601   4.251 -0.0803 -0.1550 -0.1953
 6553SOL    HW121100   3.063   7.534   4.187 -3.4935  1.2143 -0.5694
 6553SOL    HW221101   3.138   7.664   4.201  0.5305 -0.9416 -0.5894
 6554SOL     OW21102   2.279   1.400   5.017  0.1511  0.7479 -0.0881
 6554SOL    HW121103   2.360   1.410   4.966  0.8201 -1.0877  0.5191
 6554SOL    HW221104   2.240   1.319   4.983 -0.5685  0.7127  0.7923
 6555SOL     OW21105   2.846   0.397   5.028 -0.1052  0.2540 -1.0284
 6555SOL    HW121106   2.803   0.321   5.066 -1.5126  1.5285  0.0560
 6555SOL    HW221107   2.899   0.432   5.100 -0.0528  0.7226 -1.2939
 6556SOL     OW21108   3.630   1.609   2.271  0.4512  0.2615 -0.1944
 6556SOL    HW121109   3.667   1.680   2.218  0.3139  1.0316  0.7264
 6556SOL    HW221110   3.571   1.652   2.332 -0.8073 -0.7954 -0.6128
 6557SOL     OW21111   2.806   2.034   6.686 -0.2923  0.2250 -0.8832
 6557SOL    HW121112   2.770   1.967   6.628 -1.7332  1.6078 -1.6529
 6557SOL    HW221113   2.732   2.091   6.707  0.1336 -0.2113  2.3932
 6558SOL     OW21114   2.717   0.214   4.407 -0.3107  0.9785 -0.0254
 6558SOL    HW121115   2.667   0.280   4.358  0.3245  1.9204  0.5728
 6558SOL    HW221116   2.673   0.131   4.386 -0.8639  1.5236 -1.1293
 6559SOL     OW21117   2.235   0.695   4.033 -0.7209  0.6258  0.9114
 6559SOL    HW121118   2.225   0.786   4.062 -0.1393  1.7874 -2.1754
 6559SOL    HW221119   2.145   0.664   4.023 -0.9688  1.5675  0.0611
 6560SOL     OW21120   4.211   1.962   4.298 -0.7870  0.3394  0.9528
 6560SOL    HW121121   4.291   1.998   4.259 -1.2351 -0.6517 -1.0027
 6560SOL    HW221122   4.168   2.038   4.338 -0.1220  1.3666 -0.2183
 6561SOL     OW21123   3.691   0.949   3.432 -0.0972 -0.0499 -0.4117
 6561SOL    HW121124   3.752   1.007   3.478  0.0479  0.9904 -1.8548
 6561SOL    HW221125   3.725   0.944   3.343 -1.8285  0.1436 -1.1307
 6562SOL     OW21126   4.704   0.723   6.331  0.1220  0.2668  0.6914
 6562SOL    HW121127   4.677   0.807   6.367  1.0981  0.3801  1.1934
 6562SOL    HW221128   4.797   0.734   6.311 -0.0322 -0.2984 -0.4218
 6563SOL     OW21129   2.667   1.085   4.428  0.5237  0.2940 -0.5045
 6563SOL    HW121130   2.676   1.029   4.351  1.1514 -0.3326  0.0114
 6563SOL    HW221131   2.690   1.029   4.502  1.4813  1.3109  0.0043
 6564SOL     OW21132   2.384   0.954   5.269  0.1021  0.3686 -0.7259
 6564SOL    HW121133   2.295   0.931   5.295  0.4436 -2.0826 -1.4984
 6564SOL    HW221134   2.399   1.039   5.311 -2.9010  1.3570 -1.3620
 6565SOL     OW21135   3.886   0.826   6.589 -0.2485  0.6123 -0.4385
 6565SOL    HW121136   3.828   0.896   6.619 -1.2608  0.0430 -1.0120
 6565SOL    HW221137   3.927   0.793   6.669  0.2303  1.8271 -0.1568
 6566SOL     OW21138   2.231   6.419   5.901  0.6034  0.3266 -0.1278
 6566SOL    HW121139   2.268   6.507   5.891  2.3270 -0.4094 -0.7529
 6566SOL    HW221140   2.245   6.378   5.815 -1.6650 -0.0580 -0.3701
 6567SOL     OW21141   3.144   0.854   3.735  0.9106  0.0665  0.5897
 6567SOL    HW121142   3.215   0.843   3.798  0.2646 -0.0764  1.3023
 6567SOL    HW221143   3.091   0.775   3.743  0.5891  0.2315  0.1666
 6568SOL     OW21144   7.777   1.442   6.307  0.0342 -0.2261  0.1721
 6568SOL    HW121145   7.708   1.380   6.331 -0.8447  0.3256 -0.8633
 6568SOL    HW221146   7.749   1.525   6.347 -0.4210  0.2256 -1.0440
 6569SOL     OW21147   3.391   2.942   2.949  0.2220  0.1029 -0.3290
 6569SOL    HW121148   3.321   2.962   3.011 -0.7145 -0.6982 -1.1007
 6569SOL    HW221149   3.412   3.026   2.908 -1.0257  0.1847 -0.8408
 6570SOL     OW21150   2.054   0.598   5.386  0.1517 -0.0124 -0.0291
 6570SOL    HW121151   2.010   0.604   5.470  1.2633 -1.4287  0.7069
 6570SOL    HW221152   2.096   0.684   5.374 -0.5970  0.4352  0.5023
 6571SOL     OW21153   4.953   0.986   6.852 -0.3232 -0.1177 -0.0811
 6571SOL    HW121154   5.032   0.962   6.803  1.1556  0.3990  1.9076
 6571SOL    HW221155   4.936   0.909   6.907  0.5487  0.8024  1.5549
 6572SOL     OW21156   3.018   0.976   5.688 -0.3476 -0.0945  0.4971
 6572SOL    HW121157   2.992   0.995   5.778 -2.1357 -0.6817  0.1289
 6572SOL    HW221158   3.110   0.950   5.696 -0.9333 -1.8764  2.4286
 6573SOL     OW21159   3.741   2.174   4.718  0.0243 -0.4343 -0.5200
 6573SOL    HW121160   3.716   2.253   4.766  1.0984 -0.4525  0.0885
 6573SOL    HW221161   3.835   2.165   4.733  0.2549 -0.8797 -1.9920
 6574SOL     OW21162   7.753   0.752   4.120  0.8166 -0.3687 -0.8658
 6574SOL    HW121163   7.770   0.844   4.143 -0.2097 -0.7812  1.8703
 6574SOL    HW221164   7.660   0.750   4.098  0.2193 -1.1241  1.5128
 6575SOL     OW21165   3.055   0.495   6.535 -0.0228 -0.7361  0.0226
 6575SOL    HW121166   3.031   0.410   6.573  0.5463 -0.9021  0.0295
 6575SOL    HW221167   3.109   0.473   6.459 -1.5465 -0.4122 -1.1993
 6576SOL     OW21168   4.021   7.775   4.260  0.6095  0.0313 -0.2646
 6576SOL    HW121169   4.073   7.813   4.189  0.7111 -0.3214 -0.3793
 6576SOL    HW221170   4.064   7.691   4.279  1.8419  0.9903  1.5864
 6577SOL     OW21171   3.197   1.397   4.964  0.2401 -0.1701 -0.5930
 6577SOL    HW121172   3.188   1.476   5.016 -0.1638 -1.1336  0.8619
 6577SOL    HW221173   3.158   1.328   5.017 -0.2497 -1.2052 -2.2138
 6578SOL     OW21174   1.865   1.195   4.709  0.0779 -0.1328 -0.1544
 6578SOL    HW121175   1.920   1.159   4.639  1.4287 -1.4121  1.4855
 6578SOL    HW221176   1.903   1.280   4.729  0.8143 -0.5409  0.2191
 6579SOL     OW21177   2.525   0.542   5.124  0.2773 -0.1233  0.4278
 6579SOL    HW121178   2.615   0.567   5.146  1.0407 -1.6777 -0.7056
 6579SOL    HW221179   2.517   0.453   5.159 -0.3263 -0.5446 -0.7525
 6580SOL     OW21180   2.920   2.470   6.689  0.0892  0.3378  0.0803
 6580SOL    HW121181   2.908   2.433   6.602 -0.9890 -1.6807  1.0242
 6580SOL    HW221182   2.897   2.563   6.680 -1.2438 -0.1081 -1.5074
 6581SOL     OW21183   5.487   0.373   5.140  0.5243  0.0467  0.2009
 6581SOL    HW121184   5.518   0.283   5.155  1.8977  0.2557 -1.1606
 6581SOL    HW221185   5.392   0.364   5.131  0.1210 -0.7316  3.6436
 6582SOL     OW21186   3.351   0.352   4.801 -0.2458 -0.5710 -0.2050
 6582SOL    HW121187   3.314   0.266   4.823  0.1048 -0.8564 -0.7174
 6582SOL    HW221188   3.441   0.349   4.835 -0.1847 -0.4594 -0.3579
 6583SOL     OW21189   2.619   0.267   3.298  0.6260 -0.1910  0.0755
 6583SOL    HW121190   2.539   0.228   3.262 -0.4779  0.9484  1.2118
 6583SOL    HW221191   2.588   0.337   3.354  2.4939  1.0888 -0.4196
 6584SOL     OW21192   2.483   7.988   2.583 -0.0535 -0.0067  0.3781
 6584SOL    HW121193   2.531   7.918   2.626 -1.3465 -0.3444  1.3411
 6584SOL    HW221194   2.457   8.047   2.654 -0.1945  0.7040 -0.2451
 6585SOL     OW21195   3.448   0.027   3.664  0.6707  0.2016  0.1509
 6585SOL    HW121196   3.493  -0.029   3.728  2.6648 -0.1953 -1.4797
 6585SOL    HW221197   3.387  -0.032   3.619  0.6058  0.0423  0.4491
 6586SOL     OW21198   4.599   0.636   5.279 -0.5665  0.6215 -0.0293
 6586SOL    HW121199   4.658   0.667   5.349  0.8111 -1.7747 -0.0390
 6586SOL    HW221200   4.652   0.640   5.200 -1.3577  1.0396 -0.5498
 6587SOL     OW21201   1.990   2.427   3.929 -0.1483  0.3741 -0.0924
 6587SOL    HW121202   2.068   2.435   3.983  0.3521 -0.7140 -0.6103
 6587SOL    HW221203   1.922   2.397   3.989  0.5429 -1.3896 -0.1282
 6588SOL     OW21204   2.514   3.292   5.068 -0.5155 -0.0856  0.3611
 6588SOL    HW121205   2.593   3.301   5.014 -0.4796  0.3984  0.4883
 6588SOL    HW221206   2.479   3.206   5.045  0.7187 -0.8407  1.1909
 6589SOL     OW21207   2.752   7.956   2.421  0.0183  0.0931  0.2798
 6589SOL    HW121208   2.732   7.924   2.509 -1.9276 -0.1352 -0.2026
 6589SOL    HW221209   2.725   7.884   2.363 -0.2679  0.8761 -0.5753
 6590SOL     OW21210   0.558   1.897   4.760  0.0048 -0.0119  0.4526
 6590SOL    HW121211   0.616   1.930   4.829  0.0921 -0.7620  0.7388
 6590SOL    HW221212   0.492   1.845   4.806 -1.5419  1.6448  0.2551
 6591SOL     OW21213   2.975   7.735   3.231 -0.0921 -0.0722  0.0353
 6591SOL    HW121214   3.064   7.755   3.258 -0.1671  1.7618 -0.9160
 6591SOL    HW221215   2.926   7.729   3.313  0.5079  1.0246  0.4953
 6592SOL     OW21216   3.843   0.202   4.201  0.4454 -1.0178 -0.4547
 6592SOL    HW121217   3.923   0.204   4.148 -0.7692 -1.9143 -2.4164
 6592SOL    HW221218   3.830   0.110   4.223 -0.3719 -0.9637 -0.6804
 6593SOL     OW21219   2.814   7.426   4.176  0.0115  0.0763 -0.2459
 6593SOL    HW121220   2.814   7.467   4.090 -1.5106 -0.0944 -0.3480
 6593SOL    HW221221   2.776   7.492   4.234 -1.3097 -0.6967 -0.1901
 6594SOL     OW21222   3.899   0.266   5.598 -0.5953 -0.0581  0.7152
 6594SOL    HW121223   3.939   0.308   5.674  1.1967 -3.9143  2.2052
 6594SOL    HW221224   3.973   0.244   5.541 -1.5256 -0.3736 -0.4078
 6595SOL     OW21225   4.930   1.707   6.598 -0.0263 -0.4388  0.2792
 6595SOL    HW121226   4.977   1.630   6.567 -0.0400  0.0861 -1.1177
 6595SOL    HW221227   4.995   1.777   6.601 -0.2286 -0.2572  0.5182
 6596SOL     OW21228   3.444   1.057   5.878 -0.3833  0.2483  0.0012
 6596SOL    HW121229   3.518   1.115   5.899 -1.1561  0.2136  3.4328
 6596SOL    HW221230   3.436   1.000   5.955 -2.3585 -1.5264 -1.4178
 6597SOL     OW21231   2.301   0.538   2.592 -0.4879  0.9987  0.8551
 6597SOL    HW121232   2.220   0.557   2.544 -0.4012 -0.5244  0.0424
 6597SOL    HW221233   2.272   0.482   2.664 -0.0990 -0.1291  0.1622
 6598SOL     OW21234   5.025   1.001   4.747 -0.0886 -0.2746  0.0338
 6598SOL    HW121235   5.020   1.085   4.791  1.4796 -0.5640  0.8438
 6598SOL    HW221236   5.052   1.022   4.658 -1.4037  0.1841 -0.2700
 6599SOL     OW21237   5.359   0.589   3.225 -0.4086 -0.1618  0.0303
 6599SOL    HW121238   5.301   0.666   3.224  0.3258  0.4115 -1.7603
 6599SOL    HW221239   5.336   0.540   3.147  0.0623 -1.0780  0.4510
 6600SOL     OW21240   2.963   0.599   3.581 -0.0202  0.4658  0.2169
 6600SOL    HW121241   2.905   0.652   3.526 -0.0673  0.4280  0.2304
 6600SOL    HW221242   3.034   0.573   3.523 -1.5054 -1.9941 -0.6200
 6601SOL     OW21243   4.128   1.047   6.781  0.1507  0.2692  0.3259
 6601SOL    HW121244   4.154   1.070   6.870  0.3655 -0.9660  0.6012
 6601SOL    HW221245   4.077   1.123   6.750 -1.6604 -0.0847  2.2127
 6602SOL     OW21246   3.974   1.117   4.813 -0.5562  0.0042  0.5630
 6602SOL    HW121247   3.941   1.034   4.776  0.8276 -0.9103  1.2871
 6602SOL    HW221248   3.993   1.096   4.904 -0.9037  1.3631  0.9666
 6603SOL     OW21249   3.500   1.685   6.287 -0.4893  0.0252  0.0347
 6603SOL    HW121250   3.455   1.633   6.220 -1.9419  1.2893 -0.0245
 6603SOL    HW221251   3.509   1.624   6.361  0.4981 -1.1693 -1.0313
 6604SOL     OW21252   2.506   2.188   3.126 -0.5196 -0.0444  0.4717
 6604SOL    HW121253   2.528   2.242   3.201 -2.3508  0.4505  0.7016
 6604SOL    HW221254   2.414   2.208   3.108 -0.7362 -1.7498 -0.5604
 6605SOL     OW21255   3.879   0.881   5.829 -0.2548  0.0305 -0.0963
 6605SOL    HW121256   3.813   0.888   5.761  1.1136  1.7201 -1.3631
 6605SOL    HW221257   3.879   0.789   5.854 -3.2222  0.0099  0.1773
 6606SOL     OW21258   1.406   1.904   4.615 -0.0823 -0.7913  0.1909
 6606SOL    HW121259   1.365   1.936   4.695 -1.4442 -0.1567 -0.7213
 6606SOL    HW221260   1.430   1.983   4.567  0.5642 -1.1667 -0.1300
 6607SOL     OW21261   2.685   6.520   6.926  0.3899  0.4328 -0.1746
 6607SOL    HW121262   2.713   6.476   6.845 -3.6792 -1.1653 -0.9514
 6607SOL    HW221263   2.616   6.580   6.898 -1.4363 -0.4712  2.0674
 6608SOL     OW21264   2.715   0.606   4.412  0.2979  0.3088  0.7018
 6608SOL    HW121265   2.683   0.608   4.321  1.3097  1.4576  0.3539
 6608SOL    HW221266   2.641   0.571   4.462  0.0482 -1.2944 -0.6788
 6609SOL     OW21267   0.677   6.951   6.925  0.1617  0.5966  0.1566
 6609SOL    HW121268   0.731   6.978   7.000  1.5962  1.0109 -0.9757
 6609SOL    HW221269   0.706   6.862   6.907 -0.6802  0.2458  0.5098
 6610SOL     OW21270   1.920   7.754   5.401  0.3812 -0.4613 -0.5706
 6610SOL    HW121271   1.885   7.666   5.414 -0.4508  0.2833  3.7464
 6610SOL    HW221272   1.844   7.807   5.379  0.7212 -0.5837 -2.1540
 6611SOL     OW21273   2.247   2.787   4.168  0.7076  0.1923  0.7091
 6611SOL    HW121274   2.237   2.692   4.178 -0.3367  0.3069  0.8599
 6611SOL    HW221275   2.251   2.821   4.258 -1.3748  0.5075  0.7317
 6612SOL     OW21276   2.931   0.316   2.875  0.4267  0.2108 -0.6221
 6612SOL    HW121277   3.026   0.309   2.870  0.6379  1.9039  0.1595
 6612SOL    HW221278   2.915   0.410   2.877 -0.9545  0.0629  3.5929
 6613SOL     OW21279   3.144   7.377   4.048  0.3377 -0.2709 -0.2473
 6613SOL    HW121280   3.165   7.293   4.088 -0.5121 -1.0431 -1.3811
 6613SOL    HW221281   3.064   7.361   3.998 -0.6035  1.5358  0.5486
 6614SOL     OW21282   2.772   0.204   4.716  0.3152  0.0705 -0.5952
 6614SOL    HW121283   2.833   0.260   4.765  1.1373 -2.1171  1.0821
 6614SOL    HW221284   2.800   0.213   4.625  2.1177  0.4238 -0.0642
 6615SOL     OW21285   3.867   1.089   7.193 -0.5810  0.1210  0.1619
 6615SOL    HW121286   3.921   1.158   7.154 -1.2968  1.4542  1.4348
 6615SOL    HW221287   3.779   1.127   7.199 -1.1687 -1.1793  0.2407
 6616SOL     OW21288   3.778   0.954   5.577 -0.7559  0.3071  0.1458
 6616SOL    HW121289   3.854   0.933   5.522 -1.2461 -1.3121  0.0399
 6616SOL    HW221290   3.807   1.030   5.629  0.1817  1.0380 -1.3627
 6617SOL     OW21291   2.835   0.967   6.750 -0.1757  0.2458 -0.5792
 6617SOL    HW121292   2.746   0.935   6.740 -0.3128  0.8307 -1.3061
 6617SOL    HW221293   2.825   1.060   6.767  0.1938 -0.1265  2.0203
 6618SOL     OW21294   2.430   5.772   5.137  0.1991 -0.1700  0.1421
 6618SOL    HW121295   2.473   5.858   5.136 -0.1477 -0.0048 -0.6833
 6618SOL    HW221296   2.340   5.789   5.110 -0.0715 -0.6969  0.6784
 6619SOL     OW21297   3.443   0.920   6.487 -0.1334  0.3137  0.4874
 6619SOL    HW121298   3.488   1.004   6.476 -0.2357  0.3359  0.2164
 6619SOL    HW221299   3.510   0.862   6.523 -0.6411  1.0646  2.7894
 6620SOL     OW21300   3.630   0.616   4.458  0.8078 -0.3681  0.1795
 6620SOL    HW121301   3.720   0.620   4.428  0.2828 -0.1588 -1.4663
 6620SOL    HW221302   3.583   0.678   4.402 -0.6710 -1.7735 -0.2168
 6621SOL     OW21303   1.028   0.394   5.101  0.0930  0.3786  0.2608
 6621SOL    HW121304   1.115   0.404   5.062  0.7315 -0.0578  1.5262
 6621SOL    HW221305   0.980   0.471   5.072  1.4652  1.5407  0.9967
 6622SOL     OW21306   2.276   7.612   4.334  0.2082 -0.2319  0.2451
 6622SOL    HW121307   2.227   7.694   4.338 -0.6944 -0.5671 -2.2107
 6622SOL    HW221308   2.227   7.553   4.392 -0.5252  0.2844  0.1732
 6623SOL     OW21309   2.773   0.918   6.404  0.0925  0.0352  0.4980
 6623SOL    HW121310   2.803   1.006   6.427 -1.0096 -0.2318  3.3127
 6623SOL    HW221311   2.836   0.860   6.445 -0.7152 -0.4768  1.0437
 6624SOL     OW21312   3.541   0.544   2.696  0.2994 -0.0514  0.3614
 6624SOL    HW121313   3.546   0.509   2.785  0.6755 -0.5472  0.1492
 6624SOL    HW221314   3.449   0.568   2.685  0.1931 -0.2579  0.7782
 6625SOL     OW21315   1.389   6.834   6.867 -0.0841 -0.5473 -0.0283
 6625SOL    HW121316   1.394   6.784   6.949 -4.6311 -0.4791  0.5290
 6625SOL    HW221317   1.352   6.772   6.804  2.2751 -0.2436 -1.8513
 6626SOL     OW21318   2.750   1.795   5.290  0.4137 -0.4448 -0.6252
 6626SOL    HW121319   2.672   1.848   5.308  0.0739 -0.3407 -2.2328
 6626SOL    HW221320   2.758   1.797   5.195  1.9047 -1.1620 -0.5342
 6627SOL     OW21321   3.689   0.625   5.743  0.0190 -0.6409  0.2980
 6627SOL    HW121322   3.679   0.532   5.760  1.3840 -1.1329 -1.3541
 6627SOL    HW221323   3.633   0.668   5.808 -0.5603 -2.5903  1.1334
 6628SOL     OW21324   3.050   0.321   6.119  0.1952  0.0612 -0.3958
 6628SOL    HW121325   2.977   0.271   6.155 -0.7817  2.2456  0.8454
 6628SOL    HW221326   3.096   0.354   6.196  1.1656  0.5650 -1.1720
 6629SOL     OW21327   2.620   7.220   4.173 -0.1070  0.5463 -0.4990
 6629SOL    HW121328   2.699   7.272   4.159 -0.1094  0.3867 -1.1111
 6629SOL    HW221329   2.558   7.281   4.211 -0.0346  0.9324 -1.0042
 6630SOL     OW21330   2.413   0.647   3.835 -0.6802  0.0568  0.2787
 6630SOL    HW121331   2.363   0.680   3.910 -1.0504 -0.2461  0.1685
 6630SOL    HW221332   2.475   0.717   3.814  0.7188 -0.5823  2.0315
 6631SOL     OW21333   3.153   0.553   7.067  0.1256 -0.2897  0.1549
 6631SOL    HW121334   3.076   0.578   7.016 -1.1475 -0.9082  1.6984
 6631SOL    HW221335   3.224   0.546   7.002 -1.4200 -1.1001 -1.5199
 6632SOL     OW21336   2.427   7.332   7.281  0.2844 -0.1241 -0.1176
 6632SOL    HW121337   2.378   7.284   7.347  1.5119 -1.1071  0.0961
 6632SOL    HW221338   2.441   7.419   7.320  0.9229 -0.6665  0.8789
 6633SOL     OW21339   3.199   2.552   4.388 -0.6328  0.1559  0.0272
 6633SOL    HW121340   3.126   2.603   4.424 -1.8348 -1.2502 -0.2879
 6633SOL    HW221341   3.226   2.495   4.460 -0.1648  0.3428 -0.0014
 6634SOL     OW21342   3.138   7.734   4.743  0.4261  0.1004  0.1999
 6634SOL    HW121343   3.154   7.686   4.661  0.4201  1.0576 -0.3786
 6634SOL    HW221344   3.115   7.822   4.714 -0.3583  0.2440  1.2167
 6635SOL     OW21345   4.000   7.906   3.791  0.4297  0.0029 -0.1902
 6635SOL    HW121346   4.085   7.951   3.791  0.5855 -0.2897 -0.5905
 6635SOL    HW221347   3.983   7.886   3.699  0.2731 -0.5802 -0.0419
 6636SOL     OW21348   3.793   0.799   6.335  0.1812 -0.3505 -0.2602
 6636SOL    HW121349   3.837   0.795   6.420 -0.5307 -2.8292  0.0700
 6636SOL    HW221350   3.827   0.723   6.287 -0.6729  0.0495 -1.5518
 6637SOL     OW21351   4.449   1.580   6.508 -0.4032  0.9734 -0.3654
 6637SOL    HW121352   4.439   1.667   6.546 -1.3400  0.5808  0.3371
 6637SOL    HW221353   4.362   1.559   6.473 -0.6247 -0.2985  0.8572
 6638SOL     OW21354   0.510   0.517   4.227  0.0169  0.1992  0.0410
 6638SOL    HW121355   0.487   0.454   4.159  0.8291  0.1670 -0.2202
 6638SOL    HW221356   0.599   0.546   4.204  0.2899  0.2151  1.0622
 6639SOL     OW21357   1.821   7.799   3.233 -0.4771 -0.3597 -0.4411
 6639SOL    HW121358   1.865   7.755   3.161 -0.8268  0.5743 -1.2567
 6639SOL    HW221359   1.890   7.851   3.275 -0.3207 -0.7331 -0.2276
 6640SOL     OW21360   2.013   7.066   5.180 -0.0164 -0.2070  0.5909
 6640SOL    HW121361   1.984   7.078   5.271  0.1473 -1.5539  0.8411
 6640SOL    HW221362   1.952   7.120   5.129 -2.0343 -1.7252  1.2440
 6641SOL     OW21363   3.671   0.811   4.119  0.2302 -0.0619  0.4836
 6641SOL    HW121364   3.675   0.905   4.135 -0.4150 -0.2679  2.0774
 6641SOL    HW221365   3.693   0.801   4.026  1.7609  1.5118  0.6376
 6642SOL     OW21366   2.419   0.271   4.922  0.0020  0.4310 -0.0315
 6642SOL    HW121367   2.450   0.257   5.011  0.9702 -0.3444 -0.4738
 6642SOL    HW221368   2.441   0.362   4.903  0.0742  0.5066  0.4094
 6643SOL     OW21369   2.381   1.785   3.795 -0.7285 -0.2242  0.2002
 6643SOL    HW121370   2.386   1.873   3.833 -0.3251 -0.5755  0.9863
 6643SOL    HW221371   2.472   1.758   3.783 -0.8460 -0.1780 -0.9139
 6644SOL     OW21372   3.481   2.150   5.915  0.5125 -0.0094 -0.1872
 6644SOL    HW121373   3.486   2.195   5.999 -1.1942  1.4848 -0.8184
 6644SOL    HW221374   3.451   2.216   5.853  0.2630 -1.4309 -1.6803
 6645SOL     OW21375   3.020   1.653   4.638 -0.2482 -0.2743 -0.5517
 6645SOL    HW121376   3.105   1.612   4.653 -1.1684 -1.4691  1.8551
 6645SOL    HW221377   3.038   1.721   4.573  2.3259 -1.1566 -0.8812
 6646SOL     OW21378   0.776   1.095   6.328 -0.2228  0.5608 -0.0489
 6646SOL    HW121379   0.818   1.009   6.335  0.0103  0.6857  0.0875
 6646SOL    HW221380   0.848   1.155   6.308 -0.3680  0.7439 -0.0193
 6647SOL     OW21381   2.171   7.597   4.990  0.2105  0.0423  0.2187
 6647SOL    HW121382   2.157   7.551   4.908  1.6179 -1.3964  0.7275
 6647SOL    HW221383   2.130   7.683   4.978 -0.2433 -0.4140 -1.6947
 6648SOL     OW21384   3.390   1.558   6.064 -0.1508 -0.2418 -0.1232
 6648SOL    HW121385   3.332   1.598   6.000 -2.4980 -0.5936  1.6302
 6648SOL    HW221386   3.391   1.465   6.040  0.2008 -0.1440 -0.5036
 6649SOL     OW21387   1.215   0.724   4.108  0.3358  0.7535 -0.6602
 6649SOL    HW121388   1.129   0.723   4.151  0.3142  0.7999 -0.7009
 6649SOL    HW221389   1.251   0.811   4.129  0.1245  0.9582 -1.1244
 6650SOL     OW21390   4.390   1.982   6.868  0.0731  0.7820  0.0826
 6650SOL    HW121391   4.483   2.005   6.873  0.2780  0.6573 -1.9898
 6650SOL    HW221392   4.381   1.905   6.924  1.4079  0.3218 -0.2821
 6651SOL     OW21393   1.373   0.620   5.528 -0.2090  0.8367  0.3837
 6651SOL    HW121394   1.352   0.542   5.476 -0.0989  0.6081  0.6759
 6651SOL    HW221395   1.338   0.600   5.615 -1.2388  1.6111  0.1614
 6652SOL     OW21396   2.112   7.828   4.353  0.2218 -0.0776  0.1139
 6652SOL    HW121397   2.178   7.895   4.369  0.6760 -0.5037  0.0580
 6652SOL    HW221398   2.079   7.847   4.265  0.3539  0.0683  0.0952
 6653SOL     OW21399   3.024   1.889   8.056 -0.2683  0.2057 -0.0036
 6653SOL    HW121400   2.937   1.925   8.046 -1.3535 -1.8638  1.1814
 6653SOL    HW221401   3.027   1.814   7.997  0.8833  0.5142 -0.3734
 6654SOL     OW21402   4.859   0.127   3.829  0.1054  0.3508 -0.3265
 6654SOL    HW121403   4.836   0.121   3.921 -1.8166 -0.8466 -0.8328
 6654SOL    HW221404   4.947   0.090   3.824  0.0499  0.0104  0.9641
 6655SOL     OW21405   1.684   1.604   4.668  0.3801 -0.1488 -0.3202
 6655SOL    HW121406   1.775   1.623   4.693  0.1878  1.1386 -0.5429
 6655SOL    HW221407   1.679   1.508   4.669  1.8113 -0.2533 -0.5612
 6656SOL     OW21408   3.611   1.926   5.911 -0.1426 -0.4275  0.1391
 6656SOL    HW121409   3.635   1.935   5.818  1.4112  0.3460  0.5817
 6656SOL    HW221410   3.563   2.006   5.931  0.8162  0.1229  0.3414
 6657SOL     OW21411   4.722   1.479   5.152 -0.0142 -0.0923  0.5507
 6657SOL    HW121412   4.665   1.433   5.091 -0.0787 -0.1466  0.6528
 6657SOL    HW221413   4.784   1.527   5.096  0.0806 -0.3376  0.4481
 6658SOL     OW21414   5.384   1.722   6.079  0.5160 -0.0184  0.3601
 6658SOL    HW121415   5.323   1.796   6.070 -0.5013 -0.8742  0.0010
 6658SOL    HW221416   5.461   1.760   6.121 -0.4446  1.0112  1.2715
 6659SOL     OW21417   3.614   0.175   3.416 -0.3718 -0.0585  0.0007
 6659SOL    HW121418   3.539   0.165   3.475  0.9492  1.3154  2.0305
 6659SOL    HW221419   3.611   0.267   3.390  0.4539 -0.0622 -0.1229
 6660SOL     OW21420   3.080   1.031   4.278 -0.5921 -0.2107 -0.1791
 6660SOL    HW121421   3.059   0.969   4.208  1.7144 -0.9800 -0.2563
 6660SOL    HW221422   3.027   1.002   4.353 -1.5872 -0.5788 -1.0071
 6661SOL     OW21423   3.105   1.979   4.917 -0.1574 -0.0339 -0.2806
 6661SOL    HW121424   3.102   1.883   4.920  0.6372 -0.0883 -0.8186
 6661SOL    HW221425   3.176   1.998   4.855  1.5695  0.8961  1.8594
 6662SOL     OW21426   3.153   1.819   5.703  0.5952  0.0389  0.0082
 6662SOL    HW121427   3.075   1.789   5.657  0.3054  0.9657 -0.1122
 6662SOL    HW221428   3.207   1.859   5.634  1.7231 -1.5989 -0.1373
 6663SOL     OW21429   1.863   1.665   3.854 -0.3528  0.1139 -1.0826
 6663SOL    HW121430   1.959   1.669   3.847 -0.1790 -1.2479  0.0257
 6663SOL    HW221431   1.843   1.717   3.932 -0.3347 -0.9468 -0.3523
 6664SOL     OW21432   2.691   1.007   5.379 -0.4538 -0.0454 -0.1276
 6664SOL    HW121433   2.660   1.048   5.298  0.3065 -0.4486 -0.6263
 6664SOL    HW221434   2.785   1.020   5.378 -0.5604  1.0703  1.3357
 6665SOL     OW21435   2.476   0.243   4.606  0.8106  0.3816  0.3188
 6665SOL    HW121436   2.568   0.223   4.586  0.2694 -0.9074 -1.0268
 6665SOL    HW221437   2.450   0.302   4.535  1.0167  2.0916  1.5986
 6666SOL     OW21438   2.757   0.219   5.634 -0.0744  0.4270  0.1868
 6666SOL    HW121439   2.803   0.256   5.558 -0.6404  0.2334 -0.2618
 6666SOL    HW221440   2.687   0.282   5.652 -1.3187 -0.5843 -0.8550
 6667SOL     OW21441   2.106   2.850   3.917 -0.2304  0.0914  0.2390
 6667SOL    HW121442   2.102   2.776   3.855 -1.7424  0.3028  0.0529
 6667SOL    HW221443   2.175   2.825   3.979  1.2390 -0.1946 -1.4072
 6668SOL     OW21444   3.586   1.542   5.440 -0.6082  0.7379 -0.0892
 6668SOL    HW121445   3.573   1.619   5.385  0.9917  0.1426 -1.4077
 6668SOL    HW221446   3.573   1.573   5.529 -2.0376  2.0333 -0.7032
 6669SOL     OW21447   4.184   0.648   4.610 -0.5264 -0.0351 -0.5973
 6669SOL    HW121448   4.193   0.693   4.527 -1.7452 -0.3349 -0.9142
 6669SOL    HW221449   4.092   0.658   4.634 -0.7495 -1.9137 -0.4447
 6670SOL     OW21450   1.717   1.379   3.616  0.0010  0.1123  0.1053
 6670SOL    HW121451   1.640   1.391   3.671 -0.1062 -0.2269  0.0293
 6670SOL    HW221452   1.719   1.457   3.560 -0.2356  0.1617  0.1656
 6671SOL     OW21453   2.171   3.080   3.493  0.1669  0.4438 -0.4902
 6671SOL    HW121454   2.119   3.159   3.509 -0.7448 -0.6729  2.8438
 6671SOL    HW221455   2.124   3.034   3.424 -0.1712  2.0137 -1.3530
 6672SOL     OW21456   3.032   1.097   7.081  0.2821  0.0120  0.3006
 6672SOL    HW121457   2.952   1.100   7.029  0.5347  0.9277 -0.0580
 6672SOL    HW221458   3.005   1.121   7.169  0.6638  4.1212 -0.5164
 6673SOL     OW21459   2.814   0.469   3.776  0.2160 -0.2521 -0.2187
 6673SOL    HW121460   2.723   0.464   3.747 -0.2282  1.3722  0.7564
 6673SOL    HW221461   2.859   0.513   3.704 -0.1223  0.4218 -0.0272
 6674SOL     OW21462   3.148   2.150   1.824 -0.3226 -0.1130  0.6153
 6674SOL    HW121463   3.111   2.169   1.910 -3.1618  0.6624 -0.6311
 6674SOL    HW221464   3.100   2.208   1.764  2.6673  0.5799 -1.3616
 6675SOL     OW21465   4.252   1.044   7.291 -0.6631  0.4316  0.4004
 6675SOL    HW121466   4.345   1.060   7.276 -0.2863 -1.2277  0.7429
 6675SOL    HW221467   4.225   1.114   7.350  0.8258 -0.0664  1.7501
 6676SOL     OW21468   4.027   1.827   5.926  0.0868 -0.2855 -0.0601
 6676SOL    HW121469   3.980   1.744   5.922 -2.2983  0.9945 -0.6035
 6676SOL    HW221470   4.004   1.872   5.845  3.6478 -0.1601 -1.1967
 6677SOL     OW21471   3.860   1.621   1.897  0.2946  0.0599 -0.1540
 6677SOL    HW121472   3.775   1.610   1.855 -0.7302 -1.5854  2.0895
 6677SOL    HW221473   3.884   1.532   1.925  0.8705  0.9887  2.5807
 6678SOL     OW21474   2.574   7.868   6.621  0.5450 -0.6439 -0.1865
 6678SOL    HW121475   2.484   7.901   6.622 -0.0434 -2.0953  2.1829
 6678SOL    HW221476   2.572   7.792   6.563  0.2459 -0.6748 -0.1335
 6679SOL     OW21477   2.472   3.544   5.121  0.2640  0.0497 -0.2764
 6679SOL    HW121478   2.492   3.450   5.119  0.1674  0.0181  0.3331
 6679SOL    HW221479   2.550   3.585   5.084  0.1980 -0.2829 -0.8079
 6680SOL     OW21480   5.115   1.367   6.340  0.2239 -0.0038  0.3863
 6680SOL    HW121481   5.159   1.448   6.364  0.7193  0.0050 -0.5227
 6680SOL    HW221482   5.144   1.349   6.251 -0.7853 -0.5714  0.1602
 6681SOL     OW21483   3.867   1.705   1.507  0.0610 -0.4119 -0.0419
 6681SOL    HW121484   3.844   1.612   1.504  0.4415 -0.5598  1.0011
 6681SOL    HW221485   3.961   1.705   1.529 -0.2378  0.2137  1.3580
 6682SOL     OW21486   2.187   0.902   4.207 -0.0428 -0.2774 -0.0553
 6682SOL    HW121487   2.231   0.986   4.220 -1.0255 -0.1334  3.2101
 6682SOL    HW221488   2.094   0.924   4.201 -0.1890 -1.0330 -0.7286
 6683SOL     OW21489   2.065   0.126   3.818 -0.0556 -0.4084 -0.5503
 6683SOL    HW121490   2.128   0.199   3.813 -0.6024  0.1386  0.3724
 6683SOL    HW221491   2.112   0.057   3.864 -0.8464  0.8376  2.3314
 6684SOL     OW21492   0.833   1.994   2.708 -0.2259 -0.2228 -0.3276
 6684SOL    HW121493   0.867   2.081   2.690 -0.0657  0.2258  1.8222
 6684SOL    HW221494   0.911   1.938   2.712 -0.1349 -0.0708  0.1567
 6685SOL     OW21495   4.661   1.690   5.534 -0.4716 -0.3017 -0.1225
 6685SOL    HW121496   4.750   1.709   5.565 -0.0542 -1.8940 -0.2701
 6685SOL    HW221497   4.636   1.768   5.485  0.4028  0.6246  0.8572
 6686SOL     OW21498   2.148   1.632   3.834  0.0243 -0.2286 -0.1343
 6686SOL    HW121499   2.207   1.707   3.828  0.0125 -0.1991  0.1105
 6686SOL    HW221500   2.140   1.600   3.744 -0.3062  0.3222 -0.3030
 6687SOL     OW21501   3.349   0.846   4.672 -0.1021 -0.1319 -0.2198
 6687SOL    HW121502   3.345   0.891   4.587 -0.3005  2.3693  1.0508
 6687SOL    HW221503   3.443   0.836   4.689 -0.0516  0.2078 -0.2944
 6688SOL     OW21504   2.913   7.368   3.759 -0.7674  0.1582  0.0476
 6688SOL    HW121505   2.900   7.275   3.776 -0.7383  0.1201 -0.1364
 6688SOL    HW221506   2.851   7.389   3.690 -1.0492  0.3667  0.3620
 6689SOL     OW21507   2.818   7.941   5.712 -0.0120 -0.2567  0.7876
 6689SOL    HW121508   2.774   7.890   5.645  0.2457  1.0709 -0.4315
 6689SOL    HW221509   2.802   8.033   5.688  3.2400  0.3277  0.3101
 6690SOL     OW21510   4.903   1.998   4.676  0.4430 -0.0696 -0.1890
 6690SOL    HW121511   4.815   1.998   4.714 -0.2471 -0.3248 -1.6914
 6690SOL    HW221512   4.916   2.089   4.648  0.3560 -0.1735 -0.5807
 6691SOL     OW21513   2.811   2.612   5.734 -0.2314 -0.6521 -0.4727
 6691SOL    HW121514   2.903   2.587   5.724 -0.0877  0.4114 -2.3749
 6691SOL    HW221515   2.814   2.692   5.785 -0.3422 -1.9399  1.6529
 6692SOL     OW21516   4.169   1.116   6.364  0.0617  0.3545 -0.5233
 6692SOL    HW121517   4.098   1.139   6.424  0.7813  0.4394  0.3088
 6692SOL    HW221518   4.142   1.032   6.326 -0.4772  0.3828 -0.2106
 6693SOL     OW21519   3.586   0.398   4.626  0.1850  0.5671 -0.2322
 6693SOL    HW121520   3.577   0.484   4.583  2.5462  0.7959 -0.3707
 6693SOL    HW221521   3.679   0.378   4.621 -0.2821 -1.9909 -0.1020
 6694SOL     OW21522   2.973   0.884   4.468 -0.4033 -0.4742 -0.0244
 6694SOL    HW121523   3.019   0.832   4.534  0.2127  0.6656  0.4770
 6694SOL    HW221524   2.881   0.866   4.483 -0.1780 -1.9734 -0.3453
 6695SOL     OW21525   5.095   7.766   4.994 -0.1158 -0.1648  0.4986
 6695SOL    HW121526   5.065   7.729   5.077  0.5006 -3.9473 -0.7630
 6695SOL    HW221527   5.183   7.730   4.983 -0.7350 -1.0423 -2.3848
 6696SOL     OW21528   4.927   1.225   6.737 -0.2987  0.5351 -0.7297
 6696SOL    HW121529   4.895   1.279   6.809  2.5162  1.3849  0.0049
 6696SOL    HW221530   4.961   1.146   6.780 -0.0054  0.3579 -1.2829
 6697SOL     OW21531   1.861   1.788   3.584 -0.0466  0.8692  0.0179
 6697SOL    HW121532   1.915   1.717   3.619 -0.2128  0.1073 -1.2365
 6697SOL    HW221533   1.777   1.779   3.629 -1.2349 -1.8682 -2.4678
 6698SOL     OW21534   2.593   1.683   4.905 -0.3711  0.2266 -0.0220
 6698SOL    HW121535   2.682   1.683   4.871 -0.5216 -0.5011 -0.4366
 6698SOL    HW221536   2.585   1.766   4.952  0.7220  0.0164  0.5575
 6699SOL     OW21537   2.299   0.143   5.493  0.0512  0.3741 -0.4809
 6699SOL    HW121538   2.240   0.118   5.423 -1.1066 -0.2556  0.6684
 6699SOL    HW221539   2.295   0.238   5.496 -1.5430  0.3125  0.0679
 6700SOL     OW21540   2.538   0.505   3.413 -0.0324 -0.1231 -0.0910
 6700SOL    HW121541   2.545   0.600   3.406 -1.4178 -0.1136 -2.1196
 6700SOL    HW221542   2.526   0.489   3.507  1.2109  1.5879  0.4146
 6701SOL     OW21543   3.315   0.789   3.368 -0.3138 -0.0933 -0.6140
 6701SOL    HW121544   3.275   0.875   3.355 -0.5855 -0.5452 -3.4274
 6701SOL    HW221545   3.244   0.727   3.356  0.0111 -0.7753  0.7636
 6702SOL     OW21546   1.369   7.252   7.377  0.2436 -0.3651 -0.0965
 6702SOL    HW121547   1.300   7.224   7.437  0.8624 -0.4743  0.5800
 6702SOL    HW221548   1.413   7.324   7.423 -0.1524  0.4812 -1.0222
 6703SOL     OW21549   3.329   0.818   4.019 -0.3284  0.6518 -0.1357
 6703SOL    HW121550   3.370   0.776   3.943  0.3529  1.0397  0.0107
 6703SOL    HW221551   3.310   0.746   4.079  2.3557  0.6466  0.8440
 6704SOL     OW21552   2.502   0.937   5.021 -0.5088 -0.6837 -0.3038
 6704SOL    HW121553   2.455   0.940   5.105 -0.3436  0.4708 -0.2462
 6704SOL    HW221554   2.595   0.940   5.046 -0.4719  0.4669 -0.5512
 6705SOL     OW21555   3.398   0.143   5.899  0.1539 -0.5558  0.4276
 6705SOL    HW121556   3.383   0.238   5.904 -1.2776 -0.7295 -0.2002
 6705SOL    HW221557   3.316   0.104   5.929 -0.7749 -1.5763 -3.0461
 6706SOL     OW21558   3.309   0.401   3.350 -0.2992  0.4865 -0.0215
 6706SOL    HW121559   3.318   0.385   3.256  0.8717  1.6723 -0.1381
 6706SOL    HW221560   3.398   0.393   3.384 -0.6905  0.2429  0.9604
 6707SOL     OW21561   4.028   2.118   4.079  0.1813  0.3664 -0.2771
 6707SOL    HW121562   3.990   2.201   4.109 -0.7204 -0.0072 -0.3771
 6707SOL    HW221563   4.084   2.090   4.152  0.5150  1.0678 -0.2524
 6708SOL     OW21564   7.579   0.698   2.899  0.0661  0.0762 -0.3710
 6708SOL    HW121565   7.571   0.711   2.994  1.9044 -1.1941  0.0074
 6708SOL    HW221566   7.494   0.727   2.864 -0.8140  0.1842  1.6904
 6709SOL     OW21567   2.425   1.150   4.533 -0.2642 -0.3037  0.4447
 6709SOL    HW121568   2.512   1.154   4.494 -0.7412  0.9270 -0.5690
 6709SOL    HW221569   2.441   1.152   4.628  0.8010  1.2156  0.2817
 6710SOL     OW21570   3.260   7.723   7.361 -0.3450  0.0689 -0.1731
 6710SOL    HW121571   3.304   7.654   7.312 -0.3534  0.6799 -1.0810
 6710SOL    HW221572   3.307   7.728   7.444  0.3605 -0.2707 -0.5445
 6711SOL     OW21573   2.969   0.727   5.587  0.2598  0.2259 -0.2270
 6711SOL    HW121574   2.983   0.821   5.601 -0.6078  0.3887 -0.3801
 6711SOL    HW221575   2.987   0.687   5.672 -0.0655  0.6178  0.0299
 6712SOL     OW21576   0.511   1.389   5.910  0.0538 -0.0939 -0.3069
 6712SOL    HW121577   0.462   1.460   5.952 -0.8004 -1.0462  0.3867
 6712SOL    HW221578   0.561   1.349   5.981 -0.3908 -0.9120 -0.4419
 6713SOL     OW21579   4.063   2.493   5.877  0.1929  0.4260  0.1130
 6713SOL    HW121580   3.975   2.464   5.900  0.5416  0.1218  1.1048
 6713SOL    HW221581   4.080   2.450   5.793  0.1761 -1.2018  0.8940
 6714SOL     OW21582   3.724   7.939   3.478 -0.5055  0.4387  0.4829
 6714SOL    HW121583   3.689   7.900   3.558 -1.7061  1.0695  0.2987
 6714SOL    HW221584   3.691   8.029   3.479 -2.1663 -0.0373 -1.6050
 6715SOL     OW21585   2.994   7.070   4.453 -0.1805 -0.4697 -0.6127
 6715SOL    HW121586   3.003   7.162   4.430 -3.2855 -0.4208 -2.1777
 6715SOL    HW221587   3.068   7.027   4.409 -0.3823  0.9368 -2.4612
 6716SOL     OW21588   3.400   3.007   4.954  0.8045 -0.2259 -0.3861
 6716SOL    HW121589   3.330   3.008   4.890  1.6265 -0.4734 -1.3149
 6716SOL    HW221590   3.390   3.088   5.003  0.2974  0.0743 -0.9774
 6717SOL     OW21591   2.189   1.527   5.228  0.4102  0.0422 -0.2338
 6717SOL    HW121592   2.106   1.567   5.201  0.0029 -1.2421 -0.9931
 6717SOL    HW221593   2.203   1.457   5.164  2.2308  0.4007 -0.2803
 6718SOL     OW21594   2.692   7.757   4.076 -0.1665 -0.0448 -0.3740
 6718SOL    HW121595   2.754   7.704   4.025  0.9945  0.3961  0.5401
 6718SOL    HW221596   2.612   7.705   4.078  1.2607 -2.3482  1.4486
 6719SOL     OW21597   3.763   7.357   5.979  0.4749  0.1786 -0.3499
 6719SOL    HW121598   3.756   7.442   6.020  1.9845 -0.2821  0.9622
 6719SOL    HW221599   3.853   7.354   5.944  0.4637 -0.8818 -0.3385
 6720SOL     OW21600   1.852   7.608   6.708 -0.1464  0.2176  0.5041
 6720SOL    HW121601   1.796   7.636   6.781  0.3003 -1.6474  1.6303
 6720SOL    HW221602   1.794   7.607   6.632 -1.6092 -1.2792  1.5595
 6721SOL     OW21603   4.241   7.311   5.023 -0.3555 -0.4218  0.0548
 6721SOL    HW121604   4.230   7.376   4.953  4.1539  1.6327  0.9201
 6721SOL    HW221605   4.262   7.230   4.976  1.7113  0.6995 -1.1098
 6722SOL     OW21606   2.319   3.702   6.968 -0.1992 -0.0698  0.3107
 6722SOL    HW121607   2.408   3.667   6.975  0.8551  2.4497  0.5557
 6722SOL    HW221608   2.268   3.653   7.033  0.9937 -1.5412  0.1815
 6723SOL     OW21609   2.873   2.151   4.934  0.5349 -0.0924  0.1091
 6723SOL    HW121610   2.882   2.194   5.020  2.1598  2.5350 -1.2418
 6723SOL    HW221611   2.946   2.089   4.931 -0.4583 -1.3666  1.1845
 6724SOL     OW21612   1.869   7.928   6.602  0.3881  0.1987 -0.3450
 6724SOL    HW121613   1.779   7.910   6.576  0.2757  1.1537 -0.6617
 6724SOL    HW221614   1.871   7.910   6.696 -0.0870  0.0377 -0.3614
 6725SOL     OW21615   1.163   7.101   6.337 -0.0141  0.2861  0.6280
 6725SOL    HW121616   1.129   7.190   6.334  0.7312  0.6026 -3.2571
 6725SOL    HW221617   1.146   7.065   6.250  2.0217 -2.4710  1.2200
 6726SOL     OW21618   3.171   7.447   6.893  0.6445 -1.1836  0.0508
 6726SOL    HW121619   3.213   7.363   6.915  0.8111 -1.0489  0.2489
 6726SOL    HW221620   3.120   7.428   6.814 -1.2502 -2.0909  1.4162
 6727SOL     OW21621   1.658   2.249   8.019  0.0162  0.4892 -0.3850
 6727SOL    HW121622   1.700   2.264   8.104  0.9941  2.5064 -1.1573
 6727SOL    HW221623   1.684   2.160   7.995 -0.7610 -0.3507  1.6413
 6728SOL     OW21624   3.462   0.643   6.728  0.1607  0.0649  0.2071
 6728SOL    HW121625   3.420   0.689   6.801  0.9697 -0.2557  0.9025
 6728SOL    HW221626   3.416   0.559   6.723  0.7530 -0.3322  1.0432
 6729SOL     OW21627   1.979   1.879   6.588  0.0036  0.5750 -0.6022
 6729SOL    HW121628   2.044   1.812   6.567 -0.2143 -0.9072  2.8308
 6729SOL    HW221629   2.010   1.918   6.669 -1.1897  2.9731 -1.2092
 6730SOL     OW21630   2.044   0.670   7.564  0.7865  0.0773  0.6261
 6730SOL    HW121631   2.117   0.691   7.623 -0.9174  2.6185  1.9755
 6730SOL    HW221632   1.991   0.749   7.562 -1.2213 -1.2110 -1.4540
 6731SOL     OW21633   2.199   2.892   7.247  0.0387  0.6624  0.0510
 6731SOL    HW121634   2.205   2.982   7.281 -0.8983  1.0327 -0.7041
 6731SOL    HW221635   2.148   2.845   7.313 -1.1682  1.1992 -0.4686
 6732SOL     OW21636   3.229   0.117   6.470  0.0671  0.2531  0.7153
 6732SOL    HW121637   3.301   0.056   6.489  0.8744  1.3401  1.2189
 6732SOL    HW221638   3.153   0.060   6.457  0.6369 -0.8284  1.9080
 6733SOL     OW21639   2.470   0.295   6.105  0.0873 -0.4466 -0.0338
 6733SOL    HW121640   2.548   0.239   6.107 -0.4426 -1.1957  0.7877
 6733SOL    HW221641   2.473   0.342   6.188  1.2471  1.8381 -1.2666
 6734SOL     OW21642   1.607   1.736   5.321 -0.1667  0.5530  0.4041
 6734SOL    HW121643   1.528   1.687   5.342 -0.1547  0.6130  0.5909
 6734SOL    HW221644   1.679   1.682   5.354 -0.0279 -0.2316 -1.1079
 6735SOL     OW21645   3.181   2.605   5.697 -0.3871  0.0318 -0.3481
 6735SOL    HW121646   3.161   2.543   5.766 -0.2733  0.6262  0.2305
 6735SOL    HW221647   3.157   2.690   5.734  1.2027  0.5383 -0.4202
 6736SOL     OW21648   2.957   0.342   7.150  0.1219  0.5157  0.2426
 6736SOL    HW121649   3.033   0.396   7.169  1.2111 -0.2884 -1.5676
 6736SOL    HW221650   2.911   0.335   7.233  0.9795  2.5884  0.9568
 6737SOL     OW21651   2.419   0.049   7.128  0.3267 -0.3758 -0.2699
 6737SOL    HW121652   2.466  -0.004   7.192  0.4740 -2.2859 -1.8734
 6737SOL    HW221653   2.353   0.096   7.179  0.4947 -1.7650  1.2928
 6738SOL     OW21654   1.493   1.559   8.865  0.0344 -0.7148  0.3843
 6738SOL    HW121655   1.560   1.605   8.914  0.1588  1.0217 -1.3195
 6738SOL    HW221656   1.538   1.524   8.788 -1.0917  1.4809 -1.4083
 6739SOL     OW21657   2.215   1.211   7.949  0.0736 -0.0231 -0.2890
 6739SOL    HW121658   2.175   1.160   8.020  0.5084 -1.1260 -0.8146
 6739SOL    HW221659   2.284   1.154   7.914  1.7515  1.5899  0.2188
 6740SOL     OW21660   2.869   7.168   7.530  0.7719  0.2583  0.0323
 6740SOL    HW121661   2.907   7.094   7.483 -0.9737 -1.1180  0.6663
 6740SOL    HW221662   2.851   7.233   7.462  1.0478 -0.4770 -0.7617
 6741SOL     OW21663   3.078   0.028   5.726 -0.5333 -0.2740  0.0579
 6741SOL    HW121664   3.004  -0.027   5.751 -0.7650  0.3735  0.8081
 6741SOL    HW221665   3.141   0.017   5.797 -1.4257  2.0192  1.2738
 6742SOL     OW21666   2.330   2.709   7.578  0.3785  0.5245  0.3102
 6742SOL    HW121667   2.346   2.616   7.563 -3.2025 -0.3546  0.8854
 6742SOL    HW221668   2.307   2.715   7.671  1.0753  2.0992  0.4149
 6743SOL     OW21669   2.001   1.421   4.729  0.1699  0.8288 -0.0568
 6743SOL    HW121670   2.015   1.495   4.670 -1.4673  1.2375  0.0219
 6743SOL    HW221671   2.049   1.444   4.808 -0.2005  1.7424 -0.0924
 6744SOL     OW21672   4.018   7.519   6.556  0.0895 -0.8345  0.2539
 6744SOL    HW121673   4.065   7.496   6.476 -0.2111  1.0378 -0.5188
 6744SOL    HW221674   4.058   7.465   6.624  0.3753 -2.4560 -1.1309
 6745SOL     OW21675   3.179   2.045   6.425  0.5058 -0.1353  0.0227
 6745SOL    HW121676   3.090   2.072   6.449  0.0242  0.4700 -2.1576
 6745SOL    HW221677   3.212   1.998   6.501 -2.3968 -2.1047  0.2314
 6746SOL     OW21678   2.698   7.648   7.112  0.2655  0.4247 -0.4796
 6746SOL    HW121679   2.765   7.613   7.054  0.2551  1.1959 -0.9744
 6746SOL    HW221680   2.624   7.667   7.055 -0.2737 -0.1282  0.0147
 6747SOL     OW21681   1.865   2.205   5.067 -0.5968  0.1518  0.5060
 6747SOL    HW121682   1.911   2.183   5.148 -1.0328  1.4730  1.1393
 6747SOL    HW221683   1.832   2.294   5.081 -0.3907  0.5601 -1.2430
 6748SOL     OW21684   3.322   1.014   8.093 -0.8682  0.2293  0.3095
 6748SOL    HW121685   3.393   1.074   8.115  0.2846 -1.0712  0.1961
 6748SOL    HW221686   3.330   1.000   7.999 -0.4416 -0.9416  0.5035
 6749SOL     OW21687   2.551   1.205   6.018  0.2213 -0.0039 -0.0658
 6749SOL    HW121688   2.568   1.152   5.940 -1.0940  0.3581 -0.6163
 6749SOL    HW221689   2.465   1.176   6.049 -0.3745  1.5752 -0.1827
 6750SOL     OW21690   2.951   7.216   6.751  0.1488  0.2104 -0.2103
 6750SOL    HW121691   3.015   7.168   6.803 -0.1128 -0.1407 -0.2131
 6750SOL    HW221692   2.868   7.203   6.797  0.0986  0.7679 -0.1367
 6751SOL     OW21693   3.925   0.723   7.468 -0.1090  0.6490  0.3824
 6751SOL    HW121694   3.914   0.628   7.469 -0.9915  0.7307 -0.2358
 6751SOL    HW221695   4.016   0.737   7.442 -0.7919 -0.0135 -2.8105
 6752SOL     OW21696   3.044   2.477   7.789 -0.2242 -0.2492 -0.2283
 6752SOL    HW121697   3.043   2.541   7.718 -2.9533 -0.7265 -0.7292
 6752SOL    HW221698   3.014   2.396   7.749  0.2064 -1.0615  1.0453
 6753SOL     OW21699   0.570   7.436   8.351 -0.7630 -0.4797 -0.2925
 6753SOL    HW121700   0.487   7.467   8.313 -0.3950  1.3356  0.2731
 6753SOL    HW221701   0.637   7.487   8.305 -0.2632  1.2741  2.2152
 6754SOL     OW21702   3.262   2.562   6.567  0.0638  0.1555 -0.3449
 6754SOL    HW121703   3.250   2.529   6.478 -2.0350  1.9559 -0.8304
 6754SOL    HW221704   3.267   2.657   6.557 -1.0471  0.4724  1.4766
 6755SOL     OW21705   5.528   1.175   6.557 -0.0737 -0.1020 -0.1025
 6755SOL    HW121706   5.562   1.188   6.468  0.6110 -1.3779 -0.0541
 6755SOL    HW221707   5.460   1.109   6.547 -1.5999  1.3938  0.0190
 6756SOL     OW21708   3.411   7.834   4.924 -0.0757  0.7122 -0.3828
 6756SOL    HW121709   3.432   7.887   5.000  2.7431  0.9983 -1.2529
 6756SOL    HW221710   3.462   7.873   4.853 -0.6479 -1.0529 -1.8259
 6757SOL     OW21711   3.188   1.368   7.202 -0.0383 -0.1035 -0.1261
 6757SOL    HW121712   3.246   1.292   7.208  0.5138  0.3483  0.3768
 6757SOL    HW221713   3.226   1.423   7.134 -0.0243  0.0592  0.0107
 6758SOL     OW21714   4.775   2.029   7.228 -0.1173 -0.3025  0.7006
 6758SOL    HW121715   4.830   2.106   7.213 -0.4184 -0.1572  0.3255
 6758SOL    HW221716   4.732   2.046   7.312  0.0557 -0.2049  0.7704
 6759SOL     OW21717   2.589   0.258   7.690  0.4890  0.2754 -0.3343
 6759SOL    HW121718   2.584   0.241   7.784  0.7658  0.3091 -0.3114
 6759SOL    HW221719   2.516   0.316   7.672 -0.3459 -0.7504 -0.3687
 6760SOL     OW21720   3.813   0.069   6.366 -0.6089  1.1692 -0.6084
 6760SOL    HW121721   3.852  -0.010   6.402 -1.7441  0.5123 -0.7886
 6760SOL    HW221722   3.783   0.044   6.279  2.1523  2.7332 -2.1606
 6761SOL     OW21723   2.059   0.218   7.497  0.3931 -0.2016 -0.0609
 6761SOL    HW121724   2.020   0.248   7.579  3.5937  1.8981  0.8610
 6761SOL    HW221725   2.103   0.136   7.520  0.0399 -0.3951 -0.0685
 6762SOL     OW21726   1.279   7.099   6.827 -0.1368  0.2300  0.5808
 6762SOL    HW121727   1.282   7.060   6.739 -0.4388  0.9706  0.2321
 6762SOL    HW221728   1.312   7.030   6.885 -1.5945 -0.9201  0.1186
 6763SOL     OW21729   2.313   1.486   5.922  0.4052  0.2843  0.1957
 6763SOL    HW121730   2.389   1.438   5.956  1.0909  1.8749  1.0361
 6763SOL    HW221731   2.240   1.425   5.931  1.1942 -0.5313  1.4562
 6764SOL     OW21732   2.411   3.005   5.035 -0.0984  0.1784  0.3499
 6764SOL    HW121733   2.409   2.911   5.051 -1.8770  0.3900  1.7694
 6764SOL    HW221734   2.361   3.018   4.955  2.1462 -0.2302 -1.1972
 6765SOL     OW21735   3.679   1.269   5.500 -0.7128 -0.2273  0.1156
 6765SOL    HW121736   3.653   1.358   5.475  0.4109  0.3049  0.7597
 6765SOL    HW221737   3.617   1.212   5.454 -1.8590  0.9034  0.1903
 6766SOL     OW21738   3.495   7.015   6.069  0.2605  0.9998  0.0533
 6766SOL    HW121739   3.425   7.071   6.034 -1.9302 -0.3592  1.9999
 6766SOL    HW221740   3.528   7.063   6.145  0.1096  0.7713  0.2630
 6767SOL     OW21741   4.244   0.268   8.353 -0.2507 -0.3314 -0.0484
 6767SOL    HW121742   4.307   0.264   8.425 -0.8456 -1.4451  0.4305
 6767SOL    HW221743   4.181   0.335   8.380 -0.3466 -0.5874  0.3641
 6768SOL     OW21744   4.047   0.417   7.791 -0.3010  0.1721  0.0647
 6768SOL    HW121745   4.072   0.498   7.837 -1.8705  0.9142 -0.3171
 6768SOL    HW221746   4.071   0.433   7.700  2.3475 -1.1072  0.4290
 6769SOL     OW21747   3.423   7.589   7.169  0.6135 -0.4582 -0.4087
 6769SOL    HW121748   3.378   7.618   7.089 -1.2082  1.6300  1.2589
 6769SOL    HW221749   3.495   7.651   7.179 -0.8262  1.0850  0.9667
 6770SOL     OW21750   2.302   0.057   4.466 -0.1709  0.3370 -0.1628
 6770SOL    HW121751   2.287  -0.010   4.533 -0.9276  0.0970 -0.5599
 6770SOL    HW221752   2.235   0.123   4.483 -0.6300  0.0800 -0.9157
 6771SOL     OW21753   2.991   2.316   7.218 -0.5846 -0.8184  0.2156
 6771SOL    HW121754   2.907   2.277   7.243 -1.5262 -0.0078 -1.4730
 6771SOL    HW221755   2.973   2.409   7.210  1.1456 -0.2308  2.2566
 6772SOL     OW21756   3.746   1.951   6.882 -0.1031  0.2682 -0.0925
 6772SOL    HW121757   3.756   1.862   6.849  1.2588  0.0322  0.8643
 6772SOL    HW221758   3.789   2.006   6.816 -0.5257  0.1763 -0.4484
 6773SOL     OW21759   1.975   0.960   8.419  0.2009  0.5415 -0.2279
 6773SOL    HW121760   2.046   0.903   8.391 -0.3418  0.3341 -1.2822
 6773SOL    HW221761   1.993   1.044   8.376  2.0282  1.8741  2.8036
 6774SOL     OW21762   3.145   7.555   6.544  0.2703 -0.5119 -0.1806
 6774SOL    HW121763   3.181   7.638   6.576 -0.2181  0.1015 -1.1870
 6774SOL    HW221764   3.051   7.569   6.539 -0.2522 -2.1958  2.7006
 6775SOL     OW21765   3.066   0.139   6.955  0.2860 -0.7547 -0.6311
 6775SOL    HW121766   3.002   0.184   7.011  1.6445  0.1814  0.2608
 6775SOL    HW221767   3.135   0.113   7.016  1.3829 -0.5302 -1.7503
 6776SOL     OW21768   3.290   0.995   7.099 -0.8883 -0.4195  0.0447
 6776SOL    HW121769   3.280   0.961   7.188 -0.8460  2.5112  1.2854
 6776SOL    HW221770   3.206   1.037   7.080 -0.3476  0.4080 -0.6005
 6777SOL     OW21771   4.253   0.202   6.986 -0.1576 -0.0870  0.2558
 6777SOL    HW121772   4.276   0.227   6.897  1.7075  0.4423  0.8424
 6777SOL    HW221773   4.251   0.106   6.984  1.4026 -0.1369 -0.0269
 6778SOL     OW21774   1.901   1.346   7.565 -0.6448 -0.3261 -0.6867
 6778SOL    HW121775   1.859   1.267   7.532  0.5864 -2.0360  1.5403
 6778SOL    HW221776   1.948   1.381   7.489 -1.5056 -1.5156 -1.8183
 6779SOL     OW21777   3.318   1.902   6.016 -0.3017 -0.1558 -0.9037
 6779SOL    HW121778   3.405   1.890   5.977 -0.2943  2.3127 -1.8072
 6779SOL    HW221779   3.270   1.954   5.952 -2.3938 -1.2313 -0.2818
 6780SOL     OW21780   3.118   1.136   6.493 -0.5792 -0.3024 -0.4175
 6780SOL    HW121781   3.123   1.107   6.584  0.8487 -1.4796 -0.8264
 6780SOL    HW221782   3.198   1.187   6.480 -1.5905  1.3162 -0.5781
 6781SOL     OW21783   3.653   0.835   7.004  0.4430  0.5221  0.0498
 6781SOL    HW121784   3.725   0.796   7.055  0.7300 -0.2877 -0.9279
 6781SOL    HW221785   3.577   0.781   7.026  0.5758  0.1472 -0.4067
 6782SOL     OW21786   2.594   2.480   5.582 -0.2846 -0.0087  0.0094
 6782SOL    HW121787   2.536   2.427   5.637 -1.6736  1.4961  0.0825
 6782SOL    HW221788   2.642   2.535   5.644 -2.3514  2.1855 -0.2066
 6783SOL     OW21789   3.002   2.875   7.054 -0.3930 -0.2579  0.1506
 6783SOL    HW121790   3.043   2.876   6.967  0.5063 -1.5929  0.5159
 6783SOL    HW221791   3.072   2.904   7.113 -0.8363  0.1270  0.4866
 6784SOL     OW21792   0.614   0.745   4.858 -0.7119 -0.4671 -0.1477
 6784SOL    HW121793   0.701   0.707   4.873  0.1063  1.8323  1.4876
 6784SOL    HW221794   0.563   0.719   4.935 -1.3584 -1.3760 -0.8578
 6785SOL     OW21795   4.808   0.694   7.909  0.0345 -0.2866  0.7431
 6785SOL    HW121796   4.723   0.715   7.871  0.5531 -0.0386 -0.3398
 6785SOL    HW221797   4.833   0.772   7.958  0.9754  0.9106 -1.4673
 6786SOL     OW21798   1.725   6.704   6.631 -0.1201  0.4993  0.2476
 6786SOL    HW121799   1.746   6.743   6.715  0.9959  1.1517 -0.3065
 6786SOL    HW221800   1.796   6.731   6.573 -0.4865 -0.5167 -0.7329
 6787SOL     OW21801   2.106   0.045   8.302 -0.4543  0.3161  0.0027
 6787SOL    HW121802   2.186   0.096   8.317 -0.0217 -0.7902  1.7010
 6787SOL    HW221803   2.036   0.100   8.336  0.1101 -0.4968  2.7853
 6788SOL     OW21804   1.035   2.961   6.383  0.6178 -0.2301 -0.9069
 6788SOL    HW121805   1.089   3.029   6.345 -1.2702  1.8821 -0.0146
 6788SOL    HW221806   1.051   2.967   6.477 -0.6081 -0.0359 -0.6907
 6789SOL     OW21807   4.629   1.735   8.772  0.1068 -0.0683 -0.3886
 6789SOL    HW121808   4.629   1.716   8.678 -1.1209  1.8195 -0.8426
 6789SOL    HW221809   4.539   1.764   8.790  0.7294  1.1245  1.0178
 6790SOL     OW21810   1.154   0.582   7.178  0.4531 -0.5867  0.2662
 6790SOL    HW121811   1.158   0.556   7.086 -3.1314  0.6231 -0.4053
 6790SOL    HW221812   1.134   0.501   7.225 -0.2988 -0.7902 -0.3882
 6791SOL     OW21813   3.224   1.072   5.302 -0.6421 -0.7831 -0.1536
 6791SOL    HW121814   3.308   1.111   5.326 -0.9259  0.5823 -1.2106
 6791SOL    HW221815   3.246   0.990   5.259  0.2105 -0.0406 -1.1680
 6792SOL     OW21816   2.892   7.098   3.839 -0.0719 -0.3056 -0.2866
 6792SOL    HW121817   2.978   7.061   3.822  0.8222 -0.1037  3.0794
 6792SOL    HW221818   2.860   7.051   3.916 -2.5135  0.4028 -0.7533
 6793SOL     OW21819   2.770   6.635   5.986  0.0289  0.7901  0.1886
 6793SOL    HW121820   2.838   6.643   6.053 -0.2615  0.9983  0.4559
 6793SOL    HW221821   2.818   6.634   5.903  0.3726  0.7355  0.3879
 6794SOL     OW21822   0.629   6.533   6.098 -0.1575  0.2105  0.4305
 6794SOL    HW121823   0.641   6.571   6.011 -1.5198 -0.7582 -0.2123
 6794SOL    HW221824   0.537   6.550   6.120 -0.1982 -0.7361  1.0837
 6795SOL     OW21825   4.026   7.465   4.307 -0.5800  0.1598  0.6721
 6795SOL    HW121826   3.990   7.380   4.332  0.0036 -0.0463  0.8544
 6795SOL    HW221827   4.091   7.484   4.376 -0.3887  0.5407  0.3917
 6796SOL     OW21828   4.070   0.661   7.874  0.3507 -0.0850  0.4391
 6796SOL    HW121829   4.075   0.652   7.969  0.5398 -0.8993  0.3601
 6796SOL    HW221830   3.981   0.691   7.858 -0.6591 -2.6014  0.7279
 6797SOL     OW21831   3.973   0.705   6.836 -0.3975  0.1087  0.4744
 6797SOL    HW121832   3.947   0.614   6.824 -1.4360  0.5526 -0.9715
 6797SOL    HW221833   3.919   0.737   6.908 -0.9759 -0.0787  0.1285
 6798SOL     OW21834   1.462   1.469   8.324 -0.0785 -0.3012 -0.0576
 6798SOL    HW121835   1.428   1.433   8.242 -1.0246  2.2517 -0.8635
 6798SOL    HW221836   1.556   1.475   8.310 -0.4749  2.7854 -2.2070
 6799SOL     OW21837   3.820   7.965   5.955  0.0086  0.2724 -0.3210
 6799SOL    HW121838   3.788   7.961   5.865  0.7372 -0.7760 -0.5484
 6799SOL    HW221839   3.761   8.027   5.998 -2.3272 -1.5208 -0.7109
 6800SOL     OW21840   3.486   0.786   5.201  0.7233 -0.3172  0.2772
 6800SOL    HW121841   3.524   0.820   5.282  2.1470  0.1748 -0.5494
 6800SOL    HW221842   3.528   0.700   5.190  1.4215  0.1121 -0.5119
 6801SOL     OW21843   2.213   7.177   6.035 -0.4992  0.0280 -0.0497
 6801SOL    HW121844   2.264   7.138   5.964  0.1012  0.7271 -0.0147
 6801SOL    HW221845   2.167   7.250   5.994  0.0704  0.6102  0.3317
 6802SOL     OW21846   2.545   7.518   5.807  0.1856 -0.7014  0.4723
 6802SOL    HW121847   2.495   7.471   5.873 -0.4086  0.5516  0.9555
 6802SOL    HW221848   2.481   7.578   5.767  0.8933 -0.3436 -0.1475
 6803SOL     OW21849   3.311   2.179   6.216  0.6277 -0.3126  0.2853
 6803SOL    HW121850   3.275   2.123   6.284 -1.7696 -1.5936 -1.8621
 6803SOL    HW221851   3.384   2.129   6.179  0.8553 -0.3540  0.7843
 6804SOL     OW21852   3.040   7.424   4.688  0.1235 -0.4192  0.0208
 6804SOL    HW121853   2.952   7.461   4.679  0.0988 -0.4838 -0.0033
 6804SOL    HW221854   3.094   7.476   4.629  0.5859  1.2229  1.7969
 6805SOL     OW21855   3.330   7.004   7.944 -0.1678 -0.2146 -0.2825
 6805SOL    HW121856   3.419   7.013   7.910 -0.5999  0.8656 -1.2216
 6805SOL    HW221857   3.325   7.068   8.015 -0.8091  1.3809 -1.6729
 6806SOL     OW21858   3.275   7.772   6.664  0.1966 -0.0620 -0.1852
 6806SOL    HW121859   3.220   7.850   6.670  1.0347  0.4958  0.5746
 6806SOL    HW221860   3.301   7.754   6.755  2.6463  0.7379 -0.6281
 6807SOL     OW21861   2.718   1.478   5.677 -0.3218 -0.1251 -0.3498
 6807SOL    HW121862   2.688   1.549   5.620 -0.3936  1.5864  1.7038
 6807SOL    HW221863   2.807   1.502   5.701 -0.3175 -0.7678  0.3147
 6808SOL     OW21864   2.778   0.743   5.853  0.3119  0.5791  0.3017
 6808SOL    HW121865   2.854   0.786   5.894  2.4207  0.0654 -2.7289
 6808SOL    HW221866   2.781   0.653   5.888  1.8062  0.2738 -0.4951
 6809SOL     OW21867   2.470   0.278   5.210 -0.0292 -0.2206  0.1720
 6809SOL    HW121868   2.537   0.217   5.240  0.0814  0.1944  0.7949
 6809SOL    HW221869   2.416   0.295   5.287  0.3884  1.0339  0.2015
 6810SOL     OW21870   4.135   7.321   6.063 -0.1043  0.5329  0.2257
 6810SOL    HW121871   4.171   7.233   6.054  0.0508  0.6895 -0.7857
 6810SOL    HW221872   4.117   7.349   5.974  1.8786  2.3756  0.3157
 6811SOL     OW21873   4.476   7.931   6.493 -0.4895 -0.1249  0.2809
 6811SOL    HW121874   4.402   7.881   6.525  0.2637 -0.4269  1.6409
 6811SOL    HW221875   4.547   7.867   6.487  0.6078  0.7732  2.4605
 6812SOL     OW21876   2.993   1.485   9.054  0.2513 -0.5013 -0.1011
 6812SOL    HW121877   2.988   1.516   8.964 -0.8622  1.2593  0.5154
 6812SOL    HW221878   2.963   1.394   9.050 -1.6749  0.1392 -1.2525
 6813SOL     OW21879   2.563   2.204   6.656  0.2249 -0.0221 -0.4625
 6813SOL    HW121880   2.503   2.195   6.582  1.6981  0.8709 -1.8260
 6813SOL    HW221881   2.559   2.297   6.679 -1.3760 -0.5386  1.6627
 6814SOL     OW21882   3.246   2.268   7.419  0.0440  0.0359  0.3295
 6814SOL    HW121883   3.327   2.217   7.431 -0.7895 -1.1108  1.3064
 6814SOL    HW221884   3.259   2.346   7.472 -0.2528 -1.0929  2.1710
 6815SOL     OW21885   3.492   0.890   8.624 -0.4261  0.1494 -0.3636
 6815SOL    HW121886   3.419   0.938   8.584  0.1558  0.7975 -0.6694
 6815SOL    HW221887   3.563   0.954   8.628  0.1365 -0.4862 -0.1050
 6816SOL     OW21888   3.546   0.782   7.751  0.2046  0.0369  0.1594
 6816SOL    HW121889   3.534   0.702   7.801 -2.5187 -0.3598 -0.9412
 6816SOL    HW221890   3.477   0.841   7.782  0.7955  1.1618 -0.5490
 6817SOL     OW21891   2.426   0.757   5.710 -0.3155  0.5669  0.1170
 6817SOL    HW121892   2.418   0.707   5.628  0.1089 -0.2383  0.5630
 6817SOL    HW221893   2.481   0.832   5.686  0.0397  0.1915 -0.2781
 6818SOL     OW21894   0.706   0.477   7.644 -0.1440 -0.5200  0.3365
 6818SOL    HW121895   0.648   0.546   7.677 -0.4066 -0.7529  0.3710
 6818SOL    HW221896   0.789   0.521   7.626 -0.5805 -0.0112 -0.5053
 6819SOL     OW21897   1.754   1.432   8.157  0.3525 -0.3138 -0.0687
 6819SOL    HW121898   1.715   1.360   8.107 -0.7775  0.4960 -0.4076
 6819SOL    HW221899   1.828   1.460   8.104 -0.7193  0.4182 -1.2596
 6820SOL     OW21900   2.204   0.690   7.803 -0.2148 -0.4698 -0.5736
 6820SOL    HW121901   2.244   0.647   7.879 -2.9105 -0.1365  1.1798
 6820SOL    HW221902   2.275   0.696   7.739  2.6474  0.5279  2.4043
 6821SOL     OW21903   4.876   7.104   5.945  0.2270 -0.1072 -0.3035
 6821SOL    HW121904   4.846   7.085   6.034  0.2973 -0.5507 -0.3676
 6821SOL    HW221905   4.804   7.153   5.905 -0.7886 -1.8304 -0.7068
 6822SOL     OW21906   1.142   2.517   7.226 -0.2383  0.3446 -0.0753
 6822SOL    HW121907   1.099   2.543   7.307  2.7728  1.7245  1.2395
 6822SOL    HW221908   1.233   2.547   7.236  1.7029 -4.0616 -1.6917
 6823SOL     OW21909   1.864   1.951   6.356 -0.1838  0.8325 -0.2827
 6823SOL    HW121910   1.864   1.950   6.451 -3.0199 -2.0321 -0.1408
 6823SOL    HW221911   1.944   1.905   6.331 -0.6540 -0.6630  0.8427
 6824SOL     OW21912   2.726   0.145   5.010 -0.3008  0.5475  0.3690
 6824SOL    HW121913   2.723   0.157   4.915 -1.2288 -0.2967  0.2715
 6824SOL    HW221914   2.639   0.114   5.033  0.5041 -1.2454  1.1991
 6825SOL     OW21915   4.072   0.090   4.949 -0.8384 -0.0537  0.4345
 6825SOL    HW121916   4.164   0.081   4.925 -0.6338  0.9764  0.7936
 6825SOL    HW221917   4.037   0.001   4.943 -0.2613 -0.1871 -1.4299
 6826SOL     OW21918   2.662   0.087   6.981 -0.2730  0.1720 -0.0766
 6826SOL    HW121919   2.605   0.051   7.049  1.5148 -0.3121  1.2358
 6826SOL    HW221920   2.751   0.072   7.014  0.6135  2.3434 -1.2851
 6827SOL     OW21921   3.141   6.672   5.968 -0.7112 -0.1984 -0.3647
 6827SOL    HW121922   3.075   6.701   6.032  0.2471 -1.0067  1.0361
 6827SOL    HW221923   3.176   6.754   5.932 -1.3998  0.2719  0.0031
 6828SOL     OW21924   1.560   2.042   6.778  0.3764  0.4397  0.2591
 6828SOL    HW121925   1.588   1.962   6.734  0.0252  0.6939 -0.4512
 6828SOL    HW221926   1.507   2.088   6.712  1.5992  1.8428  0.2025
 6829SOL     OW21927   0.962   7.477   7.871  0.5272 -0.4465 -0.2624
 6829SOL    HW121928   1.046   7.500   7.910  1.1149 -0.8920 -1.2472
 6829SOL    HW221929   0.938   7.395   7.912  1.1936 -0.9644 -0.8791
 6830SOL     OW21930   4.041   7.155   7.453 -0.1157  0.4528 -0.1612
 6830SOL    HW121931   4.060   7.105   7.532  1.0166 -1.5465 -1.6039
 6830SOL    HW221932   3.961   7.114   7.418  1.2560 -1.0363 -1.7727
 6831SOL     OW21933   2.277   6.743   7.655 -0.7455 -0.3772  0.1136
 6831SOL    HW121934   2.237   6.805   7.594  0.3703 -1.5853 -1.9663
 6831SOL    HW221935   2.237   6.659   7.634 -0.2473 -0.8376  0.9689
 6832SOL     OW21936   2.120   5.834   7.741 -0.1954  0.4408  0.0911
 6832SOL    HW121937   2.038   5.788   7.726 -1.0343  2.0210 -0.4098
 6832SOL    HW221938   2.134   5.829   7.835 -1.0411  0.4264  0.2248
 6833SOL     OW21939   2.824   1.262   6.809 -0.0863 -0.2517 -0.1455
 6833SOL    HW121940   2.865   1.262   6.722 -0.8873  0.5156 -0.5396
 6833SOL    HW221941   2.803   1.354   6.825 -1.0974 -0.5498  0.2994
 6834SOL     OW21942   2.296   7.318   5.619 -0.1972 -0.6253 -0.3376
 6834SOL    HW121943   2.267   7.315   5.528  2.9372  1.7691 -1.5762
 6834SOL    HW221944   2.275   7.406   5.649  0.2462 -0.8673  0.7503
 6835SOL     OW21945   3.629   7.536   5.672 -0.1716  0.1009  0.5476
 6835SOL    HW121946   3.567   7.497   5.735 -0.9108  0.5902  0.1410
 6835SOL    HW221947   3.692   7.466   5.654 -0.8759 -0.5659  0.6152
 6836SOL     OW21948   2.739   0.578   7.514  0.7654 -0.4738 -0.3149
 6836SOL    HW121949   2.704   0.593   7.602  0.3852 -0.0480 -0.5344
 6836SOL    HW221950   2.810   0.641   7.505 -1.2534  1.8031 -1.4808
 6837SOL     OW21951   2.477   0.984   6.520  0.9776 -0.1277 -0.3373
 6837SOL    HW121952   2.436   0.944   6.443  0.7990  0.1271 -0.3767
 6837SOL    HW221953   2.498   1.073   6.492 -1.4474  0.8532  0.6775
 6838SOL     OW21954   2.459   7.697   5.520  0.4705 -0.0814  0.1420
 6838SOL    HW121955   2.465   7.789   5.547  1.1238 -0.3183  0.8323
 6838SOL    HW221956   2.417   7.653   5.593  1.6955 -0.6201  0.5425
 6839SOL     OW21957   3.072   2.002   6.753 -0.0058  0.1591 -0.1704
 6839SOL    HW121958   3.106   2.051   6.827 -0.4831 -2.8459  2.2359
 6839SOL    HW221959   2.989   2.044   6.732 -0.7581  0.0627  2.2897
 6840SOL     OW21960   0.315   1.249   4.664 -0.4080 -0.4261 -0.1403
 6840SOL    HW121961   0.244   1.218   4.609  0.3043 -1.3057 -0.5952
 6840SOL    HW221962   0.394   1.211   4.625  0.4262  1.2462 -0.2028
 6841SOL     OW21963   4.944   0.111   5.732 -0.3600 -0.0421  0.2298
 6841SOL    HW121964   4.861   0.079   5.696 -0.3035 -0.0388  0.0953
 6841SOL    HW221965   4.981   0.164   5.662 -0.4810  0.3667  0.4736
 6842SOL     OW21966   1.565   6.977   5.977 -0.4146  0.3742  0.4529
 6842SOL    HW121967   1.532   7.045   6.036 -0.7531  1.3766 -0.8372
 6842SOL    HW221968   1.637   7.019   5.930  2.1178 -1.4274  2.4107
 6843SOL     OW21969   3.290   3.793   6.880  0.0371 -0.2938  0.4525
 6843SOL    HW121970   3.293   3.700   6.858  2.2687 -0.2381  0.3150
 6843SOL    HW221971   3.333   3.836   6.806 -0.1019  0.7578  0.9621
 6844SOL     OW21972   2.877   7.563   6.611 -0.8260  0.5885 -0.0696
 6844SOL    HW121973   2.822   7.491   6.579 -0.2336 -0.3376  0.9310
 6844SOL    HW221974   2.857   7.568   6.704  0.7061  0.3050  0.2955
 6845SOL     OW21975   2.809   6.851   6.379 -0.2322 -0.4291 -0.2245
 6845SOL    HW121976   2.886   6.824   6.430  0.3727 -1.0137 -1.3875
 6845SOL    HW221977   2.847   6.894   6.302 -1.0687 -0.9869 -0.9546
 6846SOL     OW21978   4.242   0.323   7.970 -0.0890 -0.5175 -0.5623
 6846SOL    HW121979   4.187   0.353   7.898 -0.0115 -0.0415 -0.4261
 6846SOL    HW221980   4.191   0.342   8.049  0.7838  1.1505 -0.3438
 6847SOL     OW21981   2.377   1.869   4.633 -0.5015  0.1042 -0.5154
 6847SOL    HW121982   2.394   1.775   4.636 -0.3528  0.1417  1.6580
 6847SOL    HW221983   2.287   1.875   4.601 -0.8263 -0.8504  0.1526
 6848SOL     OW21984   1.252   6.978   7.491 -0.1078 -0.3778 -0.2144
 6848SOL    HW121985   1.241   6.974   7.586 -0.7512  3.1153 -0.0073
 6848SOL    HW221986   1.344   6.954   7.476  0.9010  1.9279  1.6914
 6849SOL     OW21987   1.384   0.207   5.847  0.4004 -0.1183 -0.0004
 6849SOL    HW121988   1.381   0.192   5.941  0.6049 -0.1500  0.0017
 6849SOL    HW221989   1.471   0.177   5.820  0.7116  0.7679 -0.0441
 6850SOL     OW21990   1.729   7.430   8.080  0.3450 -0.0210  0.1351
 6850SOL    HW121991   1.712   7.504   8.021 -1.9551 -1.1809 -0.7666
 6850SOL    HW221992   1.690   7.456   8.163 -3.3022 -1.2466 -0.9774
 6851SOL     OW21993   2.328   7.862   7.838 -0.5276 -0.1531  0.4836
 6851SOL    HW121994   2.402   7.909   7.875 -1.9880  0.9193  2.1942
 6851SOL    HW221995   2.367   7.793   7.784  1.6820 -0.2217  2.0758
 6852SOL     OW21996   2.140   3.103   7.495 -0.5843  0.0265  0.1758
 6852SOL    HW121997   2.197   3.101   7.571 -0.2187 -2.9550 -0.0666
 6852SOL    HW221998   2.056   3.069   7.526 -0.4029 -1.3298 -0.7143
 6853SOL     OW21999   1.370   0.140   6.130  0.1586  0.1123 -0.2842
 6853SOL    HW122000   1.347   0.219   6.178  0.9335  0.2186 -0.0616
 6853SOL    HW222001   1.368   0.070   6.195 -3.0471 -0.5894 -0.9491
 6854SOL     OW22002   1.339   2.911   6.036 -0.0030  0.1254 -0.5989
 6854SOL    HW122003   1.260   2.963   6.052 -0.0957 -0.5775  1.5664
 6854SOL    HW222004   1.407   2.954   6.089  0.2650 -1.0980  0.0874
 6855SOL     OW22005   2.316   1.759   5.319  0.3851  0.6822  0.0639
 6855SOL    HW122006   2.390   1.704   5.344  0.8001  1.3844  0.3745
 6855SOL    HW222007   2.244   1.696   5.308  0.7408  0.1165  0.8376
 6856SOL     OW22008   0.487   0.191   7.245 -0.1830 -0.1756 -0.4237
 6856SOL    HW122009   0.564   0.233   7.205  1.3376 -1.4742  0.9833
 6856SOL    HW222010   0.442   0.149   7.172  0.9345 -0.1041 -1.1902
 6857SOL     OW22011   2.307   0.325   7.937  0.1817 -0.0631 -0.0804
 6857SOL    HW122012   2.319   0.282   8.022  1.4663 -1.2076 -0.8013
 6857SOL    HW222013   2.271   0.256   7.880 -1.4528  0.9102 -0.2830
 6858SOL     OW22014   4.363   2.801   7.165  0.5843 -0.0958  0.3675
 6858SOL    HW122015   4.364   2.896   7.168 -0.1065 -0.1082  1.4865
 6858SOL    HW222016   4.358   2.773   7.256  0.9874 -1.2107  0.0697
 6859SOL     OW22017   4.532   1.261   8.822  0.0110  0.3623 -0.6894
 6859SOL    HW122018   4.590   1.329   8.854 -1.1619  0.7731  0.6632
 6859SOL    HW222019   4.526   1.278   8.728  0.4719  1.5613 -0.5266
 6860SOL     OW22020   4.518   0.916   8.099  0.1280  0.1929 -0.2173
 6860SOL    HW122021   4.459   0.897   8.026 -0.6198 -1.4341  0.7489
 6860SOL    HW222022   4.577   0.983   8.065 -0.6191 -0.0249 -2.0877
 6861SOL     OW22023   1.948   7.082   8.020 -0.3804  0.0746  0.1090
 6861SOL    HW122024   1.949   7.150   8.086  0.0407 -0.1365  0.3238
 6861SOL    HW222025   1.862   7.088   7.979 -0.0562  1.2774 -0.4370
 6862SOL     OW22026   2.294   7.094   8.151 -0.0300  0.4220  0.7498
 6862SOL    HW122027   2.389   7.082   8.143  0.2122  1.4370  1.8076
 6862SOL    HW222028   2.284   7.183   8.184 -1.4824  1.2459 -1.6857
 6863SOL     OW22029   4.568   1.362   8.561  0.2644 -0.1534  0.4004
 6863SOL    HW122030   4.534   1.428   8.501 -1.5946 -1.1813  0.2480
 6863SOL    HW222031   4.649   1.400   8.595  0.9975  0.8018 -2.1421
 6864SOL     OW22032   0.960   6.104   4.593  0.2344  0.1341 -0.3642
 6864SOL    HW122033   0.995   6.075   4.677  0.5891 -1.0991 -0.9242
 6864SOL    HW222034   0.871   6.134   4.613  0.5980  0.6074  0.5743
 6865SOL     OW22035   2.600   2.766   7.190 -0.0333  0.9287 -0.2150
 6865SOL    HW122036   2.601   2.671   7.200 -1.3493  0.6942 -1.8872
 6865SOL    HW222037   2.597   2.800   7.280 -0.3733 -0.6151  0.3807
 6866SOL     OW22038   2.380   0.590   6.850  0.2690 -0.6311 -0.2820
 6866SOL    HW122039   2.334   0.571   6.769 -0.3143  1.9521 -0.6418
 6866SOL    HW222040   2.394   0.504   6.890 -0.2668 -1.9014 -2.6221
 6867SOL     OW22041   3.583   0.781   7.289 -0.0147 -0.0020  0.2512
 6867SOL    HW122042   3.546   0.737   7.365  0.7164 -1.0790 -0.0087
 6867SOL    HW222043   3.627   0.858   7.324  0.4151 -0.5528  0.9364
 6868SOL     OW22044   5.206   2.346   6.914  0.1331 -0.1421 -0.0280
 6868SOL    HW122045   5.231   2.290   6.987 -0.3111 -1.0813 -0.5777
 6868SOL    HW222046   5.254   2.428   6.929  1.1109 -0.8000  0.5860
 6869SOL     OW22047   1.885   1.869   7.604  0.2565 -0.3563  0.4516
 6869SOL    HW122048   1.815   1.809   7.578  1.0550 -1.7376  1.3042
 6869SOL    HW222049   1.935   1.819   7.669  1.5135  0.9202  0.5028
 6870SOL     OW22050   3.264   1.053   4.495 -0.1994 -0.2620 -0.4081
 6870SOL    HW122051   3.245   1.145   4.515 -0.3545 -0.2902 -0.4258
 6870SOL    HW222052   3.200   1.028   4.429 -1.0828 -0.7887  0.6146
 6871SOL     OW22053   0.421   3.190   7.734 -0.0667 -0.3215 -0.0133
 6871SOL    HW122054   0.429   3.244   7.812 -0.8129  0.5588 -0.5177
 6871SOL    HW222055   0.414   3.253   7.662  1.4985 -1.1010 -0.9128
 6872SOL     OW22056   4.732   6.897   7.853  0.1533 -0.4437 -0.4788
 6872SOL    HW122057   4.796   6.846   7.903  0.2406 -0.1121 -0.2474
 6872SOL    HW222058   4.680   6.942   7.920  1.0519  0.9631 -0.7017
 6873SOL     OW22059   2.611   0.863   7.035  0.2544  0.1967 -0.1046
 6873SOL    HW122060   2.555   0.794   7.070  2.9229 -1.9761  0.2373
 6873SOL    HW222061   2.583   0.872   6.944  0.1650 -1.7800 -0.3321
 6874SOL     OW22062   1.680   0.185   7.547  0.5990  0.5326 -0.1332
 6874SOL    HW122063   1.674   0.162   7.640 -2.0857  0.0546 -0.3580
 6874SOL    HW222064   1.695   0.101   7.503  0.4666  0.5601 -0.2308
 6875SOL     OW22065   3.538   2.857   7.225 -0.1256 -0.7170 -0.3197
 6875SOL    HW122066   3.621   2.888   7.188 -0.3771 -2.1874 -2.3127
 6875SOL    HW222067   3.558   2.840   7.317  1.5468 -0.2548 -0.5580
 6876SOL     OW22068   1.311   1.909   8.053  0.3280  0.4510  0.1107
 6876SOL    HW122069   1.386   1.887   7.999  0.1003 -0.5111  0.1694
 6876SOL    HW222070   1.241   1.927   7.991  0.1925 -0.1936  0.0718
 6877SOL     OW22071   2.535   0.875   6.769 -0.1768  0.4817 -0.1712
 6877SOL    HW122072   2.462   0.815   6.786  0.5189  0.0337  1.3463
 6877SOL    HW222073   2.520   0.905   6.679 -1.0059 -1.3234 -0.6894
 6878SOL     OW22074   5.418   2.919   7.804  0.3574 -0.1267  0.4672
 6878SOL    HW122075   5.350   2.949   7.864  0.6537 -0.5237  1.0107
 6878SOL    HW222076   5.397   2.962   7.721 -0.8460 -0.6438  0.4848
 6879SOL     OW22077   3.128   5.755   7.278  0.0773  0.2533 -0.1065
 6879SOL    HW122078   3.136   5.685   7.343  0.8101  1.2156  0.8684
 6879SOL    HW222079   3.196   5.734   7.213 -0.9746 -0.9760 -0.8502
 6880SOL     OW22080   1.692   6.590   7.681  0.5604  0.1420 -0.3369
 6880SOL    HW122081   1.624   6.574   7.616  1.5432 -1.0086 -1.1459
 6880SOL    HW222082   1.649   6.638   7.751 -0.7173  0.7188 -1.4876
 6881SOL     OW22083   3.073   2.538   6.156  1.2305 -0.0278 -0.1773
 6881SOL    HW122084   3.045   2.609   6.098  1.1698  0.8934  0.9467
 6881SOL    HW222085   3.005   2.471   6.146  0.3735  0.7869  0.0200
 6882SOL     OW22086   2.540   0.857   7.918 -0.5395  0.2477  0.3448
 6882SOL    HW122087   2.624   0.894   7.946 -0.2274 -0.0993 -0.1263
 6882SOL    HW222088   2.512   0.804   7.993 -0.5751  0.7408  0.6893
 6883SOL     OW22089   4.400   1.950   6.093 -0.6485  0.0858  0.2504
 6883SOL    HW122090   4.466   1.918   6.155  1.0249 -2.2919 -2.4999
 6883SOL    HW222091   4.322   1.900   6.113 -0.9967  1.2263  2.0091
 6884SOL     OW22092   6.296   1.319   7.606  0.2938 -0.1375  0.1553
 6884SOL    HW122093   6.363   1.384   7.622 -0.1520  0.0591  1.2700
 6884SOL    HW222094   6.217   1.370   7.588  0.0621 -0.3674  0.5166
 6885SOL     OW22095   3.307   0.877   7.343 -0.1880 -0.7047  0.2063
 6885SOL    HW122096   3.391   0.831   7.345  0.6374  0.7419  0.1753
 6885SOL    HW222097   3.241   0.808   7.356  1.0643 -1.6800  1.6277
 6886SOL     OW22098   3.501   2.267   9.327  0.3103 -0.8765  0.1651
 6886SOL    HW122099   3.453   2.349   9.320  0.4432 -0.7814  0.3592
 6886SOL    HW222100   3.590   2.293   9.351  0.7481 -0.9850 -1.2988
 6887SOL     OW22101   3.976   1.299   7.056 -0.6087 -0.6664  0.1951
 6887SOL    HW122102   4.020   1.257   6.982 -1.2270 -0.7636 -0.1225
 6887SOL    HW222103   4.028   1.378   7.073 -0.2737 -0.8143 -0.1286
 6888SOL     OW22104   5.136   7.756   5.888  0.8233 -0.0209  0.0342
 6888SOL    HW122105   5.211   7.771   5.830  1.5922 -0.7647  0.8052
 6888SOL    HW222106   5.116   7.842   5.924  3.0620 -0.1761  1.8934
 6889SOL     OW22107   2.624   0.965   5.874 -0.7367 -0.2079 -0.1196
 6889SOL    HW122108   2.619   0.974   5.779  0.3200 -2.0167 -0.3824
 6889SOL    HW222109   2.673   0.885   5.888  3.7319  2.5232  1.9898
 6890SOL     OW22110   2.199   7.311   7.882  0.1267  0.1649 -0.7534
 6890SOL    HW122111   2.160   7.310   7.794  2.3149 -1.1893 -1.8024
 6890SOL    HW222112   2.247   7.393   7.885 -0.2794  0.4016 -0.6532
 6891SOL     OW22113   1.531   0.840   6.131  0.6632  0.0751 -0.3220
 6891SOL    HW122114   1.515   0.767   6.192  0.7714 -0.3853 -0.8320
 6891SOL    HW222115   1.484   0.815   6.051  1.1723  0.2935 -0.6978
 6892SOL     OW22116   4.186   1.675   7.338  0.0506 -0.0748 -0.1520
 6892SOL    HW122117   4.253   1.657   7.404  1.0194  2.7490 -0.2250
 6892SOL    HW222118   4.103   1.656   7.382  0.7836 -2.0807  0.4761
 6893SOL     OW22119   2.358   7.778   6.374  0.3255 -0.6316 -0.7169
 6893SOL    HW122120   2.380   7.779   6.281 -0.4155  0.5933 -0.9004
 6893SOL    HW222121   2.418   7.714   6.413  0.1017 -1.7522 -2.1642
 6894SOL     OW22122   3.190   7.464   5.363  0.4153 -0.6331 -0.1794
 6894SOL    HW122123   3.096   7.472   5.377  0.7143  1.4040  1.1302
 6894SOL    HW222124   3.224   7.435   5.447  1.1981  1.5715  0.3526
 6895SOL     OW22125   2.943   7.712   8.279 -0.2019  0.1377 -0.5980
 6895SOL    HW122126   3.032   7.738   8.258 -0.3370 -0.5413 -2.1408
 6895SOL    HW222127   2.939   7.714   8.374  1.3939  0.3655 -0.5130
 6896SOL     OW22128   3.166   6.446   5.803 -0.0856  0.9488  0.4657
 6896SOL    HW122129   3.104   6.374   5.817  2.8227 -1.5768  1.7790
 6896SOL    HW222130   3.132   6.517   5.857 -3.0134  0.6072 -0.7297
 6897SOL     OW22131   2.522   1.964   5.383 -0.3418 -0.4144  0.6337
 6897SOL    HW122132   2.429   1.941   5.395 -0.1777 -0.2385  2.5062
 6897SOL    HW222133   2.527   2.056   5.406  0.1605 -0.2055 -0.3053
 6898SOL     OW22134   2.957   0.403   8.115  0.2254 -0.2486  0.3473
 6898SOL    HW122135   3.036   0.404   8.062 -0.8183 -0.8270 -1.2979
 6898SOL    HW222136   2.908   0.480   8.086 -0.4061 -0.6266  0.3768
 6899SOL     OW22137   4.729   2.029   6.860 -0.3196  0.2808  0.5219
 6899SOL    HW122138   4.753   2.050   6.770 -0.6731 -0.3327  0.2866
 6899SOL    HW222139   4.807   1.988   6.897  0.0414  1.0915  0.6923
 6900SOL     OW22140   3.567   0.509   7.923 -0.1339 -0.3562 -0.5554
 6900SOL    HW122141   3.623   0.463   7.860 -0.1432  0.3433 -1.0766
 6900SOL    HW222142   3.612   0.496   8.007  2.0893  2.0335 -1.2360
 6901SOL     OW22143   4.878   0.741   7.051 -0.2058  0.3707  0.1991
 6901SOL    HW122144   4.927   0.664   7.081 -1.8162 -0.3036  1.2660
 6901SOL    HW222145   4.819   0.707   6.984 -1.9467  0.3116  1.6814
 6902SOL     OW22146   1.468   1.388   8.604  0.1043 -0.0278 -0.7961
 6902SOL    HW122147   1.496   1.443   8.531 -0.1907  1.7038  0.3363
 6902SOL    HW222148   1.381   1.422   8.627  0.4826 -0.0616  0.7856
 6903SOL     OW22149   3.336   1.873   8.438  0.2407 -0.0884 -0.5305
 6903SOL    HW122150   3.288   1.919   8.368  0.0927 -0.2679 -0.5475
 6903SOL    HW222151   3.428   1.894   8.422  0.0901  1.2569  0.2050
 6904SOL     OW22152   2.497   0.409   5.749  0.3716  0.6275  0.8657
 6904SOL    HW122153   2.560   0.449   5.809  0.2524  0.2166  1.2648
 6904SOL    HW222154   2.429   0.372   5.805  0.0413  0.6128  0.4600
 6905SOL     OW22155   1.962   0.245   7.763 -0.5518  0.5658 -0.1989
 6905SOL    HW122156   1.885   0.232   7.820  0.1627  0.3139  0.7392
 6905SOL    HW222157   2.020   0.172   7.784  0.6109  1.5859  0.2488
 6906SOL     OW22158   4.127   1.066   7.959  0.7237 -0.0709  0.1754
 6906SOL    HW122159   4.184   1.143   7.964 -0.5496  1.0510 -1.3527
 6906SOL    HW222160   4.110   1.042   8.050  0.8182  1.7335  0.7089
 6907SOL     OW22161   3.837   5.419   8.026  0.5578  0.1431  0.1163
 6907SOL    HW122162   3.784   5.465   7.961 -1.2991  0.8775  2.0249
 6907SOL    HW222163   3.826   5.327   8.005 -0.0499  0.3660 -0.5943
 6908SOL     OW22164   2.667   1.758   6.786 -0.3337  0.8330  0.1508
 6908SOL    HW122165   2.585   1.738   6.741 -0.5618 -0.9056  1.2488
 6908SOL    HW222166   2.655   1.846   6.821 -1.9968  0.3402  0.8682
 6909SOL     OW22167   2.630   1.833   7.082  0.3099  0.2871  0.4667
 6909SOL    HW122168   2.707   1.862   7.033  0.3410 -1.5601 -0.6590
 6909SOL    HW222169   2.557   1.881   7.043  0.4873 -0.3363 -0.6800
 6910SOL     OW22170   3.460   7.399   6.562 -0.8340 -0.3056  0.4295
 6910SOL    HW122171   3.388   7.462   6.554  1.4661  2.2559 -2.0158
 6910SOL    HW222172   3.531   7.449   6.603  0.0874 -2.3083  1.4078
 6911SOL     OW22173   3.265   1.564   5.760 -1.1349 -0.2462  0.0174
 6911SOL    HW122174   3.350   1.578   5.718 -0.9619  0.6067  0.6156
 6911SOL    HW222175   3.220   1.647   5.750 -1.4847 -0.3564  0.6280
 6912SOL     OW22176   2.267   1.183   6.112 -0.6590  0.1487 -0.2683
 6912SOL    HW122177   2.238   1.217   6.197  1.2813 -0.2974  0.6312
 6912SOL    HW222178   2.196   1.205   6.052 -0.7307  3.3321  0.8118
 6913SOL     OW22179   2.490   1.511   9.464 -0.0018  0.2073 -0.2322
 6913SOL    HW122180   2.397   1.506   9.485 -0.1610  1.3052 -0.6138
 6913SOL    HW222181   2.499   1.463   9.381 -0.0443 -0.7460  0.3032
 6914SOL     OW22182   4.713   7.975   5.125 -0.5543  0.5672 -0.1162
 6914SOL    HW122183   4.797   7.947   5.161 -0.6191  1.4726  0.8148
 6914SOL    HW222184   4.695   7.914   5.054  1.5703  1.1837 -1.2658
 6915SOL     OW22185   1.519   1.302   7.826 -0.2075 -0.6439 -0.8176
 6915SOL    HW122186   1.568   1.369   7.778 -0.9958 -0.2350 -1.0623
 6915SOL    HW222187   1.455   1.269   7.764 -1.8240  0.5018  0.1636
 6916SOL     OW22188   3.758   0.426   8.511 -0.4178  0.6222 -0.4312
 6916SOL    HW122189   3.734   0.334   8.516  1.9614 -0.0155  0.9361
 6916SOL    HW222190   3.717   0.466   8.588 -1.0463  0.6250 -0.7601
 6917SOL     OW22191   2.872   0.321   5.393  0.1023  0.5158 -0.3708
 6917SOL    HW122192   2.899   0.278   5.312 -1.3340  0.6476 -0.9407
 6917SOL    HW222193   2.836   0.405   5.365 -1.4926  0.0776  0.2581
 6918SOL     OW22194   2.016   1.984   6.872 -0.1405  0.1782 -0.0923
 6918SOL    HW122195   2.003   2.078   6.878 -0.5479  0.2518 -1.7481
 6918SOL    HW222196   1.934   1.946   6.902  0.5398  0.2679  2.0403
 6919SOL     OW22197   2.877   6.662   5.736 -0.9691 -0.0755  0.6507
 6919SOL    HW122198   2.924   6.722   5.678 -1.4148  0.0254  0.3954
 6919SOL    HW222199   2.882   6.577   5.692  0.6227 -0.4839  1.5380
 6920SOL     OW22200   1.874   0.905   7.328 -0.0689  0.1155  0.1850
 6920SOL    HW122201   1.812   0.842   7.292 -1.3397  0.9076  0.8896
 6920SOL    HW222202   1.929   0.929   7.254 -0.3255 -0.9277 -0.3638
 6921SOL     OW22203   2.571   7.608   7.915 -0.0277  0.5463  0.2969
 6921SOL    HW122204   2.541   7.560   7.837  0.1568 -0.1343  0.6395
 6921SOL    HW222205   2.609   7.689   7.880  1.2985 -0.3568 -0.4326
 6922SOL     OW22206   2.797   7.387   7.761 -0.3735 -0.1736  0.4922
 6922SOL    HW122207   2.832   7.450   7.697  0.6470 -0.9914  0.2249
 6922SOL    HW222208   2.708   7.417   7.777  0.0114  1.2067  0.1904
 6923SOL     OW22209   2.979   2.224   6.511 -0.4091 -0.8101  0.1310
 6923SOL    HW122210   2.896   2.198   6.550 -0.5095 -0.1173  0.3966
 6923SOL    HW222211   2.967   2.317   6.488  0.7248 -0.2958  1.4391
 6924SOL     OW22212   2.832   0.543   8.664  0.1601 -0.6317  0.0831
 6924SOL    HW122213   2.796   0.527   8.751 -0.4391 -2.3121 -0.4188
 6924SOL    HW222214   2.887   0.621   8.674 -1.3191  0.2905  1.5381
 6925SOL     OW22215   3.747   1.240   6.869  0.0622 -0.0515 -0.1738
 6925SOL    HW122216   3.801   1.238   6.948  1.6230 -2.3819 -1.1797
 6925SOL    HW222217   3.659   1.221   6.899  0.4370  0.1398  1.1139
 6926SOL     OW22218   3.846   0.741   7.749 -0.2741  0.3541 -0.2959
 6926SOL    HW122219   3.869   0.728   7.657  0.8882  0.8606 -0.0831
 6926SOL    HW222220   3.751   0.754   7.748 -0.5672 -1.4868 -1.2206
 6927SOL     OW22221   3.612   1.147   7.779 -0.4913 -0.2716  0.2265
 6927SOL    HW122222   3.601   1.166   7.872  1.9834 -2.2112  1.0241
 6927SOL    HW222223   3.699   1.107   7.772 -0.8495 -0.8029 -2.8353
 6928SOL     OW22224   3.798   0.595   8.256  0.1000 -0.6792  0.6917
 6928SOL    HW122225   3.759   0.530   8.315 -0.4472  0.6735  1.9004
 6928SOL    HW222226   3.782   0.679   8.300  0.1107  0.3462 -1.1777
 6929SOL     OW22227   1.332   2.251   5.380  0.2042 -0.0742 -0.1396
 6929SOL    HW122228   1.247   2.208   5.370  0.3752 -0.4652  0.0476
 6929SOL    HW222229   1.326   2.298   5.463  0.1727 -0.1053 -0.1245
 6930SOL     OW22230   2.294   1.199   7.486  0.3914  0.2945 -0.0683
 6930SOL    HW122231   2.352   1.125   7.469 -0.4790 -1.1087  2.4309
 6930SOL    HW222232   2.349   1.264   7.529  1.0437  0.8902 -1.7734
 6931SOL     OW22233   3.133   1.230   7.933 -0.4984 -0.0605  0.1184
 6931SOL    HW122234   3.074   1.261   7.864 -0.1812 -1.5795 -0.8664
 6931SOL    HW222235   3.133   1.135   7.924  1.8823 -0.1347  0.2587
 6932SOL     OW22236   2.025   0.229   8.028 -0.0932  0.6733 -0.4387
 6932SOL    HW122237   2.070   0.153   7.990  1.9014  1.2857  0.6099
 6932SOL    HW222238   2.086   0.264   8.092 -2.4037  1.0748  1.7089
 6933SOL     OW22239   3.007   2.354  10.412  0.5088  0.1652  0.3306
 6933SOL    HW122240   3.075   2.421  10.412 -0.8875  1.6576  0.8474
 6933SOL    HW222241   3.049   2.276  10.376  2.2982  1.2041  0.0838
 6934SOL     OW22242   2.158   3.433   8.013  0.3773  0.1342  0.3387
 6934SOL    HW122243   2.193   3.445   8.101  0.5515 -0.0680  0.3011
 6934SOL    HW222244   2.182   3.343   7.990  0.9706  0.4180 -0.1945
 6935SOL     OW22245   3.718   1.407   6.403 -0.6232  0.3840  0.8335
 6935SOL    HW122246   3.763   1.399   6.487 -0.7793 -3.0422  0.7020
 6935SOL    HW222247   3.768   1.474   6.356  1.1064  0.4478  2.6255
 6936SOL     OW22248   4.556   1.456   7.927  0.4392 -0.1050 -0.4351
 6936SOL    HW122249   4.504   1.535   7.937  0.4559 -0.0921 -0.4501
 6936SOL    HW222250   4.516   1.411   7.852  0.0552 -0.4030 -0.0588
 6937SOL     OW22251   3.756   0.936   7.411  0.9394  0.4811  0.0928
 6937SOL    HW122252   3.805   0.863   7.448 -0.8755 -0.8565 -0.0298
 6937SOL    HW222253   3.821   0.985   7.361  2.0972 -1.3851 -0.3338
 6938SOL     OW22254   3.025   0.693   8.815  0.1058  0.1267  0.0710
 6938SOL    HW122255   2.990   0.653   8.895  0.4541  1.5291  0.9731
 6938SOL    HW222256   3.039   0.785   8.839  0.4710  0.5183 -1.5365
 6939SOL     OW22257   2.793   7.212   8.815 -0.7886  0.0037 -0.4617
 6939SOL    HW122258   2.818   7.305   8.821 -0.4895 -0.0460 -0.9249
 6939SOL    HW222259   2.849   7.169   8.880  0.9518 -0.2242 -2.0231
 6940SOL     OW22260   2.178   0.903   8.102  0.3205 -0.2503  0.2582
 6940SOL    HW122261   2.104   0.851   8.135  0.4026 -0.0858  0.7074
 6940SOL    HW222262   2.197   0.865   8.017  0.1593 -0.7438  0.4362
 6941SOL     OW22263   3.828   1.105   8.448  0.7179  0.1853 -0.4343
 6941SOL    HW122264   3.848   1.021   8.406 -2.1108 -0.9095  0.1741
 6941SOL    HW222265   3.814   1.165   8.375  0.2102 -0.5494 -0.9528
 6942SOL     OW22266   2.687   7.708   9.632  0.0882 -0.2419 -0.5852
 6942SOL    HW122267   2.724   7.794   9.615  0.8044 -0.5429 -0.5726
 6942SOL    HW222268   2.636   7.688   9.553  0.3274 -0.0242 -0.7980
 6943SOL     OW22269   3.322   1.362   8.283 -0.8625  0.2934  0.8713
 6943SOL    HW122270   3.353   1.448   8.310 -1.5563  0.6386  0.5912
 6943SOL    HW222271   3.400   1.307   8.285 -0.3011  1.0582  0.4913
 6944SOL     OW22272   3.244   2.820  10.237  0.4288 -0.0151  0.0655
 6944SOL    HW122273   3.250   2.897  10.181  2.3286 -1.0108 -1.2170
 6944SOL    HW222274   3.190   2.759  10.188  0.7777 -0.3037  0.0365
 6945SOL     OW22275   2.862   2.140   9.724 -0.2254 -0.0690 -0.2344
 6945SOL    HW122276   2.900   2.174   9.805  0.6920 -0.6497 -0.4099
 6945SOL    HW222277   2.938   2.113   9.672 -0.8552 -0.5777 -0.8966
 6946SOL     OW22278   2.443   1.864   7.627 -0.5348  1.0173 -0.7294
 6946SOL    HW122279   2.497   1.897   7.556 -0.7974  3.0240 -0.0575
 6946SOL    HW222280   2.467   1.916   7.703  0.1429 -1.4418  0.8681
 6947SOL     OW22281   3.443   0.335   8.589 -0.6043 -0.1389  0.2359
 6947SOL    HW122282   3.431   0.430   8.592 -3.0421 -0.4236  1.8585
 6947SOL    HW222283   3.416   0.311   8.500 -0.2267  0.6328 -0.1041
 6948SOL     OW22284   3.235   1.375  10.750 -0.9398 -0.5130 -0.3464
 6948SOL    HW122285   3.285   1.362  10.670 -0.9149 -0.3456 -0.3570
 6948SOL    HW222286   3.159   1.317  10.741  0.3394 -2.4718  0.6289
 6949SOL     OW22287   1.952   0.193   8.486 -0.5377  0.2569  0.4812
 6949SOL    HW122288   1.948   0.123   8.551 -1.4636  0.6891  0.9017
 6949SOL    HW222289   2.000   0.264   8.530  2.6819 -0.9434 -0.7874
 6950SOL     OW22290   4.016   0.104   7.785  0.6425  0.6370 -0.1292
 6950SOL    HW122291   4.030   0.192   7.820  0.7647  0.8575 -0.7129
 6950SOL    HW222292   3.925   0.105   7.754  0.9258  0.8789 -0.9997
 6951SOL     OW22293   1.101   0.787   7.465 -0.4309  0.1366  0.2437
 6951SOL    HW122294   1.078   0.751   7.380  0.9652 -0.9033  0.2594
 6951SOL    HW222295   1.115   0.880   7.449  0.6592 -0.1860 -0.8763
 6952SOL     OW22296   3.076   3.147   8.178 -0.3198  0.4411  0.3241
 6952SOL    HW122297   3.078   3.149   8.082 -0.1978 -0.8283  0.2803
 6952SOL    HW222298   3.154   3.097   8.202 -0.5673  0.4075  1.0698
 6953SOL     OW22299   4.056   0.461   8.404 -0.2375  0.0274 -0.1713
 6953SOL    HW122300   3.964   0.447   8.426 -0.3877  0.8668 -0.2142
 6953SOL    HW222301   4.086   0.525   8.469  0.4938 -0.7028  0.2330
 6954SOL     OW22302   3.022   0.125  11.067  0.0338  0.2560  0.4544
 6954SOL    HW122303   2.940   0.174  11.062 -0.4103 -0.5110  0.0190
 6954SOL    HW222304   3.006   0.045  11.017  0.8632 -0.1706  0.8390
 6955SOL     OW22305   3.905   0.923   9.061  0.5952 -0.2904 -0.2305
 6955SOL    HW122306   3.966   0.962   8.998  0.1445 -1.4858 -1.4597
 6955SOL    HW222307   3.938   0.834   9.075  0.2635 -0.2825  0.6595
 6956SOL     OW22308   3.607   1.956   8.387  0.1663  0.3190  0.7375
 6956SOL    HW122309   3.679   1.898   8.363  0.1127  0.6818 -0.3532
 6956SOL    HW222310   3.644   2.044   8.380 -0.5414  0.5435 -0.4892
 6957SOL     OW22311   3.510   0.349   7.038 -0.1643 -0.6402 -0.4158
 6957SOL    HW122312   3.565   0.384   7.108  0.3105 -1.2235 -0.4859
 6957SOL    HW222313   3.422   0.343   7.077  0.2344 -1.6299  0.3740
 6958SOL     OW22314   2.104   0.610   8.473 -0.4396 -0.0437  0.1514
 6958SOL    HW122315   2.022   0.639   8.512 -0.1498  1.0140  0.0252
 6958SOL    HW222316   2.166   0.680   8.494 -0.3882  0.8473 -2.5723
 6959SOL     OW22317   4.367   2.785   6.863 -0.6267  0.5181 -0.0811
 6959SOL    HW122318   4.402   2.791   6.951 -1.8856  0.6753  0.4382
 6959SOL    HW222319   4.383   2.870   6.824 -0.7952  0.7249  0.2952
 6960SOL     OW22320   2.449   1.773   8.068 -0.3121 -0.1129  0.0532
 6960SOL    HW122321   2.475   1.823   7.991 -3.8850  0.9324 -0.6219
 6960SOL    HW222322   2.448   1.838   8.139 -0.7132 -0.1980  0.1277
 6961SOL     OW22323   1.273   7.083  10.205  0.0652 -0.5863  0.6251
 6961SOL    HW122324   1.350   7.109  10.255 -0.7655  0.8017  1.2314
 6961SOL    HW222325   1.200   7.096  10.264 -0.9080  0.7608 -0.7989
 6962SOL     OW22326   3.442   0.818   9.141 -0.4318 -0.0249 -0.0543
 6962SOL    HW122327   3.480   0.817   9.053  1.3165 -0.5507  0.6680
 6962SOL    HW222328   3.355   0.858   9.129 -0.9453 -1.5982 -2.2653
 6963SOL     OW22329   3.918   2.795   7.880  0.1970 -0.0703  0.3198
 6963SOL    HW122330   3.981   2.866   7.895 -1.4251  1.1467  1.7809
 6963SOL    HW222331   3.847   2.835   7.831 -0.7497 -0.6590  1.1659
 6964SOL     OW22332   3.090   0.069   8.880  0.0100 -0.1118  0.2660
 6964SOL    HW122333   3.174   0.028   8.901  0.2796  0.0642 -0.4239
 6964SOL    HW222334   3.062   0.109   8.962 -0.4512 -1.9734  1.0756
 6965SOL     OW22335   2.326   7.910   8.929  0.3182  0.0300  0.5485
 6965SOL    HW122336   2.383   7.987   8.926 -0.3986  0.6057  1.2626
 6965SOL    HW222337   2.293   7.908   9.019  0.5738 -1.3046  0.6282
 6966SOL     OW22338   4.492   1.121   7.186 -0.2953 -0.1076 -0.4578
 6966SOL    HW122339   4.478   1.201   7.136 -1.1501 -1.2687 -2.1734
 6966SOL    HW222340   4.569   1.081   7.147  1.3440  0.7579  1.6787
 6967SOL     OW22341   2.350   1.010   8.283 -0.4356 -0.3921  0.3872
 6967SOL    HW122342   2.282   0.973   8.227  1.2181  0.2575 -2.2348
 6967SOL    HW222343   2.335   1.105   8.279 -0.0172 -0.3141  0.6366
 6968SOL     OW22344   3.417   0.177   9.387 -0.2019 -0.2994  0.1258
 6968SOL    HW122345   3.346   0.113   9.379 -0.4490 -0.4123  2.4715
 6968SOL    HW222346   3.381   0.246   9.443  1.2424  0.0410  0.6844
 6969SOL     OW22347   4.567   7.100   8.004 -0.5032 -0.7045 -0.0043
 6969SOL    HW122348   4.477   7.072   7.988 -0.0034 -2.9892  0.8024
 6969SOL    HW222349   4.585   7.074   8.094  1.1179 -0.7466 -0.2973
 6970SOL     OW22350   3.633   2.533   7.002  0.5209 -0.5039 -0.5401
 6970SOL    HW122351   3.564   2.596   6.980  1.9472  0.7971 -1.5940
 6970SOL    HW222352   3.709   2.588   7.021  1.2967 -1.8922  0.5089
 6971SOL     OW22353   2.664   7.998   8.476 -0.2922  0.1271 -0.0972
 6971SOL    HW122354   2.589   8.027   8.527 -2.2111 -1.9879 -1.4896
 6971SOL    HW222355   2.672   8.062   8.405 -0.6047  0.5239  0.2241
 6972SOL     OW22356   2.977   2.444  10.096 -0.1044  0.7204 -0.6584
 6972SOL    HW122357   2.999   2.381  10.164 -0.8248 -0.1185 -1.1922
 6972SOL    HW222358   2.997   2.529  10.135  3.8449  0.1244 -0.9434
 6973SOL     OW22359   4.721   1.016   7.747 -0.2232  0.3382  0.8973
 6973SOL    HW122360   4.712   0.974   7.661 -0.9560 -0.1149  1.1841
 6973SOL    HW222361   4.631   1.022   7.779  0.0438  0.5833  1.6001
 6974SOL     OW22362   2.628   6.721   9.304  0.3474  0.1770 -0.1102
 6974SOL    HW122363   2.668   6.648   9.257  1.1769  1.5563 -1.6339
 6974SOL    HW222364   2.536   6.718   9.279  0.6643  0.5274 -1.3765
 6975SOL     OW22365   2.264   0.818   8.545 -0.0879 -0.1318  0.2322
 6975SOL    HW122366   2.240   0.898   8.591  0.5445 -0.4496  1.1390
 6975SOL    HW222367   2.339   0.842   8.491 -0.6958  0.1897 -0.4810
 6976SOL     OW22368   2.430   0.057   7.503  0.1138  0.4172 -0.6898
 6976SOL    HW122369   2.392  -0.027   7.478 -0.9206  0.8734 -0.7116
 6976SOL    HW222370   2.514   0.035   7.543 -0.7492 -0.7150  0.5577
 6977SOL     OW22371   3.109   0.954   8.884  0.2799 -0.4931  0.2482
 6977SOL    HW122372   3.132   0.999   8.802  2.1332  2.6834  2.2929
 6977SOL    HW222373   3.038   1.007   8.921  2.7994  1.2835  2.9428
 6978SOL     OW22374   2.510   1.256   6.833 -0.2652 -0.3780  0.0922
 6978SOL    HW122375   2.599   1.282   6.810 -0.2360 -0.5769 -0.0183
 6978SOL    HW222376   2.520   1.197   6.907 -0.4650  1.7526  1.9253
 6979SOL     OW22377   3.371   0.609   8.052  0.1391 -0.7210  0.3007
 6979SOL    HW122378   3.402   0.592   8.141  0.7493  1.5716  0.5759
 6979SOL    HW222379   3.447   0.592   7.996  1.1524  2.0698  0.6977
 6980SOL     OW22380   2.389   0.471   8.439  0.3930  0.2121 -0.2098
 6980SOL    HW122381   2.385   0.393   8.385 -1.2417 -0.9855  1.5022
 6980SOL    HW222382   2.299   0.505   8.439  1.3625  3.1606 -2.2719
 6981SOL     OW22383   2.487   1.385   9.214  0.5267 -0.0040 -0.3157
 6981SOL    HW122384   2.465   1.469   9.176 -0.8378 -0.6534 -1.0282
 6981SOL    HW222385   2.530   1.337   9.143  1.3944  0.1065  0.1176
 6982SOL     OW22386   4.670   0.640   7.356  0.0770 -0.8488 -0.0505
 6982SOL    HW122387   4.732   0.698   7.313 -0.8711 -0.3895 -0.8435
 6982SOL    HW222388   4.692   0.553   7.323  0.6618 -0.7664  0.1198
 6983SOL     OW22389   3.248   1.593  10.444  0.5369  0.1135  0.2181
 6983SOL    HW122390   3.304   1.652  10.394  1.9447 -0.5480  0.9531
 6983SOL    HW222391   3.238   1.516  10.388  1.5096 -0.3265  0.6308
 6984SOL     OW22392   1.521   1.477   9.968  0.1341  0.3725 -0.1177
 6984SOL    HW122393   1.496   1.519   9.887 -3.2025  0.2149  0.7052
 6984SOL    HW222394   1.579   1.540  10.011  1.4097  0.7392 -2.2370
 6985SOL     OW22395   1.499   6.655   7.891 -0.3580  0.0970  0.3486
 6985SOL    HW122396   1.417   6.648   7.939 -0.8789  0.1404 -0.5115
 6985SOL    HW222397   1.500   6.744   7.857 -0.2707 -0.1086 -0.1949
 6986SOL     OW22398   5.324   2.837   8.217 -0.5631  0.3899  0.6959
 6986SOL    HW122399   5.413   2.815   8.244  0.1980  2.3992 -0.0264
 6986SOL    HW222400   5.306   2.921   8.260 -1.9188  0.2551  0.4295
 6987SOL     OW22401   2.625   2.709   6.717  0.3999 -0.7872  0.3058
 6987SOL    HW122402   2.599   2.787   6.765 -0.7681 -0.4033 -0.8741
 6987SOL    HW222403   2.715   2.727   6.689  0.2297  0.0447  0.2556
 6988SOL     OW22404   3.817   6.851   7.676  0.0047  0.0130 -0.0259
 6988SOL    HW122405   3.891   6.792   7.692  0.1818  0.3773  0.5356
 6988SOL    HW222406   3.858   6.936   7.659 -0.2938  0.3862  1.0462
 6989SOL     OW22407   1.751   1.723   9.985 -0.8009 -0.0613  0.0800
 6989SOL    HW122408   1.785   1.767   9.907 -0.3738 -0.2111  0.1828
 6989SOL    HW222409   1.678   1.779  10.013 -0.7465  0.1715 -0.2314
 6990SOL     OW22410   2.857   2.053   8.691 -0.2938  0.2589  0.4204
 6990SOL    HW122411   2.894   2.011   8.768 -0.6661  1.0175  1.0263
 6990SOL    HW222412   2.903   2.013   8.617  2.3653  1.7657  1.1681
 6991SOL     OW22413   1.658   0.112   7.846  0.0304  0.3213  0.4285
 6991SOL    HW122414   1.620   0.151   7.924 -0.2405  0.3146  0.3005
 6991SOL    HW222415   1.706   0.035   7.878 -1.3034 -0.5393  0.4228
 6992SOL     OW22416   2.789   5.996   9.742  0.2666 -0.3075 -0.4218
 6992SOL    HW122417   2.846   6.060   9.699 -1.8355  1.6498 -0.4954
 6992SOL    HW222418   2.799   6.013   9.835 -0.4629  0.3503 -0.4486
 6993SOL     OW22419   1.191   6.394   8.260 -0.0455 -0.2801 -0.2221
 6993SOL    HW122420   1.275   6.354   8.283 -1.3130 -2.3986  0.9749
 6993SOL    HW222421   1.169   6.449   8.334  0.5633  0.8297 -0.8352
 6994SOL     OW22422   1.422   7.601   8.976 -0.1908  0.6633 -0.1103
 6994SOL    HW122423   1.354   7.591   9.044 -0.9544  2.1830 -0.6219
 6994SOL    HW222424   1.504   7.581   9.022 -1.0174 -2.6413  0.1915
 6995SOL     OW22425   2.724   1.558   9.067 -0.3629  0.8848 -0.7325
 6995SOL    HW122426   2.692   1.468   9.065 -0.6661  0.9907 -2.5230
 6995SOL    HW222427   2.812   1.551   9.103 -1.1390  0.1690  1.1485
 6996SOL     OW22428   3.887   1.295   9.218 -0.0105  0.4391 -0.1960
 6996SOL    HW122429   3.945   1.364   9.251 -1.4353  1.4085  0.4166
 6996SOL    HW222430   3.823   1.342   9.165 -2.3049 -0.0520  1.9537
 6997SOL     OW22431   3.480   6.872  10.008  0.1740 -0.7716 -0.0676
 6997SOL    HW122432   3.568   6.901  10.032 -0.1133  0.3503 -0.3117
 6997SOL    HW222433   3.450   6.822  10.085  1.5884 -2.5516 -0.5934
 6998SOL     OW22434   3.255   1.467   8.739 -0.3284 -0.2434  0.0021
 6998SOL    HW122435   3.196   1.528   8.694 -1.7022 -0.6435  1.1777
 6998SOL    HW222436   3.278   1.511   8.820  0.6446 -0.2915 -0.2399
 6999SOL     OW22437   1.816   7.614   7.341 -0.3373  0.8738 -0.1919
 6999SOL    HW122438   1.745   7.643   7.398 -0.1034 -0.1891  0.6888
 6999SOL    HW222439   1.809   7.518   7.342  0.3980  0.8007 -1.0207
 7000SOL     OW22440   3.283   1.074   7.588  0.2561 -0.5639  0.2928
 7000SOL    HW122441   3.293   0.999   7.529 -2.2976 -1.0862  0.4219
 7000SOL    HW222442   3.224   1.133   7.542 -0.9841 -0.5188  1.8702
 7001SOL     OW22443   2.631   7.261   9.989 -0.1705 -0.0009  1.0768
 7001SOL    HW122444   2.662   7.186   9.937 -0.0048  1.2839 -0.7936
 7001SOL    HW222445   2.545   7.233  10.021  0.6928 -1.7014  2.0813
 7002SOL     OW22446   2.635   7.450  10.211  0.5850  0.3978 -0.6068
 7002SOL    HW122447   2.669   7.412  10.130  0.1622 -0.8789 -0.1959
 7002SOL    HW222448   2.625   7.543  10.191 -0.5961 -0.0607 -2.4076
 7003SOL     OW22449   3.932   7.686   8.874 -0.0252 -0.4084  0.7922
 7003SOL    HW122450   3.922   7.674   8.779  0.1135  0.7407  0.6151
 7003SOL    HW222451   4.025   7.668   8.891  1.1381  3.7497 -0.0812
 7004SOL     OW22452   4.285   0.539   9.460 -0.4394  0.1484 -0.0816
 7004SOL    HW122453   4.246   0.624   9.482 -1.0543 -0.2359  0.3410
 7004SOL    HW222454   4.360   0.531   9.518 -0.0452  0.6509 -0.5143
 7005SOL     OW22455   3.326   2.903   9.078  0.3859  0.5222 -0.1580
 7005SOL    HW122456   3.270   2.890   9.154  0.6271 -0.8410 -0.1928
 7005SOL    HW222457   3.362   2.991   9.089 -0.8079  0.9495  0.4770
 7006SOL     OW22458   2.731   3.561   7.836 -0.3626  0.0289  0.3128
 7006SOL    HW122459   2.766   3.649   7.837  0.2957 -0.2236  0.0012
 7006SOL    HW222460   2.780   3.513   7.902 -0.8581 -0.0552  0.6277
 7007SOL     OW22461   1.980   7.858   5.908  0.3959 -0.4548  0.9625
 7007SOL    HW122462   2.038   7.933   5.922  0.2943 -0.1852  0.0083
 7007SOL    HW222463   1.929   7.851   5.989 -1.0787  1.8215  0.3037
 7008SOL     OW22464   2.923   0.260   8.386  0.4542 -0.1871  0.1473
 7008SOL    HW122465   2.837   0.289   8.416  1.0829  1.7732  0.2255
 7008SOL    HW222466   2.936   0.307   8.303  1.0003 -1.3403 -0.4539
 7009SOL     OW22467   2.421   7.592   9.246  0.8457 -0.4837 -0.2432
 7009SOL    HW122468   2.460   7.679   9.254  0.7164 -0.5090  0.7675
 7009SOL    HW222469   2.382   7.575   9.332  0.7246 -1.4686 -0.4820
 7010SOL     OW22470   1.425   6.808   8.218  0.6051 -0.4432 -0.5841
 7010SOL    HW122471   1.371   6.749   8.166  0.0206 -0.2113 -0.2547
 7010SOL    HW222472   1.505   6.820   8.166  1.1783 -2.2828 -0.2297
 7011SOL     OW22473   2.283   7.524   7.707 -0.0018  0.3862  0.0472
 7011SOL    HW122474   2.243   7.569   7.782  1.5917 -0.0944  1.2361
 7011SOL    HW222475   2.221   7.537   7.635 -1.2740  1.4068  1.2816
 7012SOL     OW22476   4.352   7.315   8.214  0.5302  0.3553 -0.9951
 7012SOL    HW122477   4.291   7.294   8.144  1.1274 -1.2787 -1.0616
 7012SOL    HW222478   4.389   7.400   8.189  0.2195  0.1209 -2.2833
 7013SOL     OW22479   4.379   1.184   8.405  0.7585 -0.5098 -0.0240
 7013SOL    HW122480   4.409   1.172   8.495 -0.5112 -0.7146  0.3851
 7013SOL    HW222481   4.418   1.267   8.377  0.7842 -0.2130  0.8670
 7014SOL     OW22482   5.178   1.420   7.867 -0.1618 -0.0978  0.1767
 7014SOL    HW122483   5.134   1.380   7.791  0.1517  1.9544 -1.1775
 7014SOL    HW222484   5.122   1.398   7.941 -1.0951 -1.2446 -0.8247
 7015SOL     OW22485   2.079   0.600   8.813 -0.2390 -0.5525 -0.0876
 7015SOL    HW122486   2.146   0.637   8.870  0.7433 -1.0927 -0.8661
 7015SOL    HW222487   2.050   0.673   8.759  0.7634 -0.6073 -0.7257
 7016SOL     OW22488   2.924   2.485   9.818  0.2315  0.0495 -0.4133
 7016SOL    HW122489   2.939   2.480   9.912 -3.2763 -1.5029  0.1895
 7016SOL    HW222490   3.011   2.470   9.780  1.5806 -0.3050  2.4979
 7017SOL     OW22491   3.576   1.164   7.504  0.2796 -0.2867 -0.3800
 7017SOL    HW122492   3.573   1.164   7.599 -0.5681  0.0942 -0.4001
 7017SOL    HW222493   3.642   1.098   7.482 -0.2576 -1.1226  0.4489
 7018SOL     OW22494   2.892   7.472   8.443 -0.0416 -0.5746 -0.5077
 7018SOL    HW122495   2.848   7.391   8.469  1.5024 -0.9024  1.3124
 7018SOL    HW222496   2.828   7.541   8.459 -0.1313 -1.0857  1.5856
 7019SOL     OW22497   3.755   0.973   8.115 -0.4529 -0.4322 -0.1318
 7019SOL    HW122498   3.751   0.999   8.023  1.4949 -0.0159 -0.1260
 7019SOL    HW222499   3.848   0.959   8.133 -0.6891  0.2832  1.9979
 7020SOL     OW22500   3.497   7.588   9.437  0.1218 -0.3183 -0.6908
 7020SOL    HW122501   3.518   7.508   9.486 -1.7328 -0.8306 -0.6644
 7020SOL    HW222502   3.573   7.644   9.450  0.9072 -1.5630  0.3938
 7021SOL     OW22503   2.512   0.795  10.182 -0.3054 -0.2224  0.2317
 7021SOL    HW122504   2.555   0.714  10.154  0.8246 -0.3293  2.0737
 7021SOL    HW222505   2.582   0.847  10.220 -1.2194  1.1764  0.0477
 7022SOL     OW22506   3.306   7.848   8.611  0.0026  0.5027  0.0592
 7022SOL    HW122507   3.349   7.933   8.599 -0.6012  1.0341  1.5130
 7022SOL    HW222508   3.377   7.789   8.635  0.1972  0.9663  0.6422
 7023SOL     OW22509   2.000   1.182  10.097  0.5663 -0.6382 -0.8901
 7023SOL    HW122510   1.914   1.167  10.137  0.9675 -1.3233 -0.2575
 7023SOL    HW222511   2.019   1.274  10.116 -0.0332 -0.4747 -1.0496
 7024SOL     OW22512   2.351   7.048   7.808 -0.1616  0.3250  0.1945
 7024SOL    HW122513   2.407   7.103   7.752 -0.0899  0.6843  0.6061
 7024SOL    HW222514   2.387   6.960   7.799 -0.1504  0.3809 -0.3213
 7025SOL     OW22515   2.951   7.632   9.539 -0.2378 -0.6951 -0.2907
 7025SOL    HW122516   2.876   7.636   9.598  0.8437 -1.1055  1.1768
 7025SOL    HW222517   2.915   7.600   9.456 -1.7205 -0.5762  0.2796
 7026SOL     OW22518   3.734   1.592   7.604 -0.9340  0.1277  0.6660
 7026SOL    HW122519   3.722   1.660   7.670 -0.1150  0.7075  0.2301
 7026SOL    HW222520   3.800   1.627   7.545 -1.8426 -0.2610 -0.6331
 7027SOL     OW22521   3.279   0.343   9.659  0.7642 -0.1802 -0.0771
 7027SOL    HW122522   3.293   0.402   9.585 -0.1776 -0.1277 -0.2200
 7027SOL    HW222523   3.201   0.292   9.636  1.0551 -0.8779  0.4267
 7028SOL     OW22524   2.762   0.823   8.902  0.0870  0.4182  0.1978
 7028SOL    HW122525   2.813   0.765   8.959 -0.2924  3.2253  3.7020
 7028SOL    HW222526   2.678   0.832   8.945 -0.2173  2.7371 -0.7450
 7029SOL     OW22527   4.342   1.634   8.766 -0.2057  0.1707  0.1858
 7029SOL    HW122528   4.278   1.703   8.752  1.9226  2.2157 -0.1574
 7029SOL    HW222529   4.350   1.590   8.682 -0.3945  0.6026 -0.0561
 7030SOL     OW22530   2.399   1.906  11.379  0.5026  0.0358  0.1704
 7030SOL    HW122531   2.462   1.979  11.387 -0.2936  0.6345  1.2728
 7030SOL    HW222532   2.314   1.947  11.394 -0.2235 -0.6769 -1.7824
 7031SOL     OW22533   1.756   1.779   8.543  0.0128 -0.0899  0.2699
 7031SOL    HW122534   1.700   1.751   8.470  0.4751 -2.2039  0.6640
 7031SOL    HW222535   1.834   1.816   8.502  0.0918 -0.8916 -0.3069
 7032SOL     OW22536   2.080   2.452   6.675 -0.4380  0.2193  0.3775
 7032SOL    HW122537   2.143   2.471   6.606  0.9988 -1.0467  1.2805
 7032SOL    HW222538   2.008   2.513   6.659  1.1878  2.0504 -0.4372
 7033SOL     OW22539   4.380   7.584   8.457 -0.3995  0.1478 -0.2100
 7033SOL    HW122540   4.320   7.588   8.532 -0.8200  0.7707 -0.5762
 7033SOL    HW222541   4.422   7.498   8.465 -1.3949 -0.3299  0.0059
 7034SOL     OW22542   4.270   7.202   6.906 -0.1750  0.5195  0.0180
 7034SOL    HW122543   4.338   7.254   6.949  1.7785 -1.8826  0.0396
 7034SOL    HW222544   4.269   7.119   6.953 -2.3059  0.0131 -0.7869
 7035SOL     OW22545   1.743   1.498  11.033  0.1522  0.4418 -0.1866
 7035SOL    HW122546   1.809   1.560  11.005  0.7793 -1.0242 -2.2360
 7035SOL    HW222547   1.752   1.493  11.128  1.7549  1.6043 -0.2450
 7036SOL     OW22548   3.077   0.178   9.133  0.3518 -1.0460 -0.1867
 7036SOL    HW122549   3.054   0.261   9.174  2.0504  0.4868 -2.0763
 7036SOL    HW222550   3.112   0.124   9.204  1.6015  0.8353  0.6989
 7037SOL     OW22551   3.698   0.536   7.239  0.1209  0.1089 -0.4969
 7037SOL    HW122552   3.638   0.611   7.247 -0.5245 -0.3862 -0.6018
 7037SOL    HW222553   3.677   0.480   7.313  0.8261  0.1730 -0.2374
 7038SOL     OW22554   2.126   1.450  10.468  0.2705  0.3303  0.3109
 7038SOL    HW122555   2.041   1.423  10.501 -1.7110  2.7561 -2.3005
 7038SOL    HW222556   2.154   1.519  10.528 -0.7430  1.0643 -0.0248
 7039SOL     OW22557   2.906   6.432   9.379  0.1059  0.6104 -0.0559
 7039SOL    HW122558   2.941   6.478   9.303  0.8713  0.6693  0.3253
 7039SOL    HW222559   2.940   6.480   9.455 -0.9605  0.7853  0.3273
 7040SOL     OW22560   4.084   0.505   9.286 -0.6505 -0.4815 -0.1141
 7040SOL    HW122561   4.150   0.491   9.354 -0.7345 -1.2202 -0.1826
 7040SOL    HW222562   4.056   0.596   9.298 -0.5402 -0.5565  0.7211
 7041SOL     OW22563   4.531   7.975   8.746 -0.3243  1.0094  0.3717
 7041SOL    HW122564   4.486   8.058   8.764  2.2607  2.3583  0.9879
 7041SOL    HW222565   4.490   7.943   8.666 -1.6149  2.6804  0.2992
 7042SOL     OW22566   3.431   7.701   7.576 -0.1803 -0.6927  0.1518
 7042SOL    HW122567   3.429   7.692   7.671  0.8157 -2.2115  0.0594
 7042SOL    HW222568   3.512   7.749   7.558 -1.2789  1.2841  0.1267
 7043SOL     OW22569   1.779   1.141  10.246 -0.4967  0.3759  0.4196
 7043SOL    HW122570   1.766   1.222  10.294  0.6477  0.1142  1.2095
 7043SOL    HW222571   1.691   1.115  10.218 -1.3902  0.0408  3.2289
 7044SOL     OW22572   1.564   0.222   8.791  0.0423  0.3251  0.1978
 7044SOL    HW122573   1.488   0.166   8.806  0.9224 -1.3694 -1.2213
 7044SOL    HW222574   1.584   0.258   8.877 -0.4986 -1.7028  1.2528
 7045SOL     OW22575   3.745   1.061   6.650 -0.4693  0.1612  0.1305
 7045SOL    HW122576   3.752   1.126   6.720 -0.3236  2.0672 -1.5567
 7045SOL    HW222577   3.677   1.094   6.592  1.2467  0.1478 -2.0622
 7046SOL     OW22578   4.194   0.757   8.750  0.6734 -0.6289 -0.3512
 7046SOL    HW122579   4.268   0.817   8.736 -0.8376  1.4408  0.0051
 7046SOL    HW222580   4.160   0.741   8.662  0.9406 -0.7638 -0.4312
 7047SOL     OW22581   0.953   6.527   8.656  0.3602 -0.1345 -0.1283
 7047SOL    HW122582   0.943   6.433   8.672  0.9065 -0.2234 -0.2920
 7047SOL    HW222583   0.898   6.544   8.579 -0.5256 -0.1209  0.4845
 7048SOL     OW22584   4.060   1.845   7.050  0.1142  0.0687 -0.6198
 7048SOL    HW122585   4.147   1.811   7.071 -0.6033 -0.8661  1.0237
 7048SOL    HW222586   4.066   1.871   6.958  2.0871 -0.0685 -0.5693
 7049SOL     OW22587   4.755   0.298   7.527  0.0090 -0.1438  0.0150
 7049SOL    HW122588   4.738   0.355   7.453 -1.2849  2.2503  2.0164
 7049SOL    HW222589   4.850   0.293   7.532  0.1471  1.3569 -0.5874
 7050SOL     OW22590   3.442   1.940  10.414 -0.2523 -0.0730  0.0840
 7050SOL    HW122591   3.476   1.970  10.498 -0.8126 -1.6757  0.9343
 7050SOL    HW222592   3.472   1.849  10.407 -1.0837 -0.2910 -0.9493
 7051SOL     OW22593   3.791   1.263   8.221 -0.0437 -0.1246  0.0159
 7051SOL    HW122594   3.856   1.272   8.151 -0.9081 -0.8812 -0.9063
 7051SOL    HW222595   3.747   1.348   8.223 -0.3542 -0.2655 -0.7014
 7052SOL     OW22596   2.261   1.249   9.371  0.1571  0.2551  0.1753
 7052SOL    HW122597   2.235   1.336   9.401  0.9410  0.6799 -0.3422
 7052SOL    HW222598   2.277   1.259   9.277 -1.4089 -0.8493 -0.2420
 7053SOL     OW22599   2.503   6.797   7.456 -0.1107 -0.3340  0.1712
 7053SOL    HW122600   2.494   6.706   7.483  0.6931 -0.6109 -0.4478
 7053SOL    HW222601   2.426   6.815   7.403  0.0312 -0.8501 -0.2189
 7054SOL     OW22602   3.163   0.606   9.225 -0.2691 -0.2075  0.2248
 7054SOL    HW122603   3.181   0.693   9.189  1.4853 -0.7304 -0.2434
 7054SOL    HW222604   3.185   0.546   9.154  4.0569 -1.3181  2.2077
 7055SOL     OW22605   4.414   1.232  10.024  0.3956  0.0314 -0.3432
 7055SOL    HW122606   4.438   1.184   9.945 -0.3178 -0.8980 -0.0276
 7055SOL    HW222607   4.363   1.307   9.992  0.8306  0.1319 -0.8063
 7056SOL     OW22608   4.167   7.092   9.418 -0.1104  0.5771 -0.2906
 7056SOL    HW122609   4.247   7.073   9.468 -1.6367 -0.5311  1.8981
 7056SOL    HW222610   4.120   7.155   9.472 -2.1092 -1.1420  0.0950
 7057SOL     OW22611   3.133   2.130   8.608  0.1516 -0.4027  0.3531
 7057SOL    HW122612   3.101   2.206   8.560  1.8592  0.2165  0.1431
 7057SOL    HW222613   3.082   2.056   8.574 -1.4445  0.5913  0.4770
 7058SOL     OW22614   2.288   7.520   9.460 -0.1141 -0.4750  0.7873
 7058SOL    HW122615   2.333   7.450   9.506  0.6580 -0.4749  0.0531
 7058SOL    HW222616   2.204   7.481   9.433 -0.3970 -0.5971  1.7967
 7059SOL     OW22617   4.353   6.740   8.314  0.0851 -0.1286 -0.0140
 7059SOL    HW122618   4.327   6.649   8.330 -1.6711  0.0715 -1.4663
 7059SOL    HW222619   4.439   6.733   8.271  1.0598 -0.9491  1.9392
 7060SOL     OW22620   3.063   0.661   7.301  0.5180  0.4173  0.3987
 7060SOL    HW122621   3.127   0.638   7.234 -0.6497  2.8295 -1.7512
 7060SOL    HW222622   2.983   0.682   7.252 -1.5019 -0.9629  2.8441
 7061SOL     OW22623   2.188   2.212   7.995  0.4013 -0.2426  0.2662
 7061SOL    HW122624   2.112   2.179   7.947 -0.3997  1.3323  0.3766
 7061SOL    HW222625   2.209   2.143   8.058 -0.3363 -1.1037 -0.4034
 7062SOL     OW22626   2.747   2.391   8.985  0.1127  0.1759 -0.3556
 7062SOL    HW122627   2.772   2.327   9.051 -0.0410  2.2752  1.8507
 7062SOL    HW222628   2.705   2.339   8.916  0.8575 -2.1668  0.8690
 7063SOL     OW22629   4.559   0.388   8.305 -0.0705 -0.4603  0.4636
 7063SOL    HW122630   4.498   0.457   8.279  1.5582  0.8441 -0.0270
 7063SOL    HW222631   4.639   0.434   8.330  1.1353 -2.1798 -0.0517
 7064SOL     OW22632   1.146   0.830   8.279 -0.4665 -0.0265 -0.7320
 7064SOL    HW122633   1.158   0.736   8.271  0.3950 -0.0633  0.6628
 7064SOL    HW222634   1.160   0.864   8.191  0.4723 -1.0749 -1.0030
 7065SOL     OW22635   0.250   1.194   9.184  0.5780 -0.3942  0.6215
 7065SOL    HW122636   0.308   1.153   9.120  0.8400 -1.1029  1.2950
 7065SOL    HW222637   0.270   1.287   9.178  0.9251 -0.5043  0.0037
 7066SOL     OW22638   1.520   7.583   7.647 -0.5162  0.2098 -0.1128
 7066SOL    HW122639   1.603   7.625   7.623 -1.2938  0.3832 -2.7721
 7066SOL    HW222640   1.513   7.597   7.742  1.8353  1.3342 -0.0286
 7067SOL     OW22641   2.220   7.292   5.359 -0.3854 -0.3467 -0.1241
 7067SOL    HW122642   2.285   7.245   5.308 -0.8321 -2.8401  1.4381
 7067SOL    HW222643   2.175   7.348   5.295  1.7334 -0.2413 -1.6285
 7068SOL     OW22644   4.807   7.664   7.956  0.0727 -0.4018 -0.1503
 7068SOL    HW122645   4.885   7.669   7.902  0.2246 -0.8318  0.0218
 7068SOL    HW222646   4.752   7.736   7.927  0.7294  0.1859  0.0378
 7069SOL     OW22647   2.978   2.675  10.230  0.3345 -0.5441  0.5120
 7069SOL    HW122648   2.983   2.693  10.324 -1.3743 -2.1261  0.9875
 7069SOL    HW222649   2.917   2.741  10.196 -0.1651 -0.8332  0.8221
 7070SOL     OW22650   2.507   1.048   7.527  0.1891 -0.3515  0.0017
 7070SOL    HW122651   2.456   1.028   7.605 -1.6626 -0.0746 -1.0857
 7070SOL    HW222652   2.521   0.962   7.486 -2.0930 -0.1930 -1.2568
 7071SOL     OW22653   3.197   2.694   8.685 -0.2537  0.1578 -0.1703
 7071SOL    HW122654   3.266   2.676   8.749  0.4376  0.0680 -0.9169
 7071SOL    HW222655   3.200   2.620   8.625 -2.1831 -0.7185  0.7461
 7072SOL     OW22656   2.869   2.488   5.470 -0.0373 -0.2043  0.0647
 7072SOL    HW122657   2.870   2.398   5.502 -0.0571  0.1072  1.0009
 7072SOL    HW222658   2.796   2.528   5.518  0.3884  0.4732  0.1581
 7073SOL     OW22659   2.792   2.819   9.166  0.4891  0.0940  0.0653
 7073SOL    HW122660   2.702   2.786   9.164  0.3656  0.4045 -1.9316
 7073SOL    HW222661   2.816   2.818   9.259 -1.5915  0.0808  0.6608
 7074SOL     OW22662   4.235   7.554   8.675  0.8285  0.1271  0.4367
 7074SOL    HW122663   4.155   7.575   8.723  0.1270 -3.0363  0.8771
 7074SOL    HW222664   4.300   7.538   8.743  1.1453  0.2723  0.1681
 7075SOL     OW22665   4.694   0.858   8.315  0.3466 -0.2871  0.5159
 7075SOL    HW122666   4.636   0.852   8.240 -1.1452 -0.5173  1.6283
 7075SOL    HW222667   4.775   0.894   8.280 -1.4225  3.0062 -0.6492
 7076SOL     OW22668   2.715   3.078   9.111 -0.4241 -0.3538 -0.1010
 7076SOL    HW122669   2.774   3.142   9.150  0.5524 -1.0645 -0.3891
 7076SOL    HW222670   2.753   2.993   9.133  0.3355 -0.8038 -2.7896
 7077SOL     OW22671   4.223   2.527   8.969  0.4723  0.2266  0.3064
 7077SOL    HW122672   4.268   2.447   8.942 -0.0652 -0.6125  1.7791
 7077SOL    HW222673   4.197   2.569   8.887  0.8926 -1.0214 -0.4894
 7078SOL     OW22674   2.491   3.037   8.418  0.2097  0.0910 -0.0391
 7078SOL    HW122675   2.411   2.995   8.386 -0.9026  2.0635  0.0124
 7078SOL    HW222676   2.494   3.015   8.511  0.6969 -1.3946 -0.3691
 7079SOL     OW22677   3.901   0.130  10.453  0.3968  0.2125 -0.0614
 7079SOL    HW122678   3.936   0.165  10.370 -1.0903  0.5760 -0.5559
 7079SOL    HW222679   3.978   0.094  10.497  1.4504  1.2589 -0.9746
 7080SOL     OW22680   3.240   0.366   6.376  1.0438 -0.0310 -0.5261
 7080SOL    HW122681   3.227   0.273   6.396  0.1248  0.5989  2.2495
 7080SOL    HW222682   3.328   0.386   6.408  0.1724  0.6257  1.6375
 7081SOL     OW22683   3.882   2.776   6.743  0.0634  0.3311 -0.9985
 7081SOL    HW122684   3.917   2.834   6.676  1.1794 -0.3143 -0.9998
 7081SOL    HW222685   3.787   2.775   6.727 -0.1183  2.8366 -0.4306
 7082SOL     OW22686   0.150   2.081   9.398  0.3023  0.3742 -0.4741
 7082SOL    HW122687   0.226   2.024   9.402 -0.8952 -1.2622 -0.0871
 7082SOL    HW222688   0.077   2.026   9.427 -1.2543  1.4905 -2.0673
 7083SOL     OW22689   4.847   7.957   9.717  0.6067  0.2262  0.3296
 7083SOL    HW122690   4.781   7.912   9.770 -1.1152  1.8389 -0.3503
 7083SOL    HW222691   4.890   7.887   9.667 -1.6718 -0.7382 -0.3710
 7084SOL     OW22692   4.347   2.266  10.002  0.2473  0.7047  0.1531
 7084SOL    HW122693   4.277   2.214   9.963  0.9077  0.1650 -0.3258
 7084SOL    HW222694   4.302   2.343  10.037 -0.6841 -0.0025  0.5481
 7085SOL     OW22695   2.346   0.597   8.008  0.5906 -0.7665  0.0899
 7085SOL    HW122696   2.382   0.608   8.096  2.3800  0.4758 -0.7439
 7085SOL    HW222697   2.347   0.502   7.993 -1.3784 -1.1835  1.9873
 7086SOL     OW22698   2.918   1.441   7.205  0.0934  0.4438  0.0485
 7086SOL    HW122699   2.987   1.389   7.163  0.9722  1.7062 -0.1118
 7086SOL    HW222700   2.948   1.531   7.198 -0.7293  0.8682  1.5727
 7087SOL     OW22701   2.528   0.246   9.332  0.2892  0.6687 -0.6230
 7087SOL    HW122702   2.477   0.164   9.332  0.2654  0.6845 -0.7558
 7087SOL    HW222703   2.565   0.250   9.421 -1.3034  1.5109  0.0420
 7088SOL     OW22704   3.058   7.840   7.511 -0.3651 -0.2824  0.3524
 7088SOL    HW122705   3.107   7.794   7.443 -1.2779  0.7840 -1.0986
 7088SOL    HW222706   3.096   7.928   7.512 -1.1664  0.0749  0.3270
 7089SOL     OW22707   3.022   2.516  12.253 -0.0503 -0.1004 -0.1672
 7089SOL    HW122708   2.998   2.459  12.180 -0.2224  1.7765 -1.6303
 7089SOL    HW222709   2.944   2.570  12.267  0.5521  0.6378  0.3486
 7090SOL     OW22710   3.809   1.822   8.813  0.4535 -0.5514  0.9055
 7090SOL    HW122711   3.734   1.766   8.832 -0.5426 -0.6386 -2.5893
 7090SOL    HW222712   3.872   1.765   8.770  2.1746 -0.2310  2.8381
 7091SOL     OW22713   2.464   2.006  10.780  0.4867 -0.2974 -0.1076
 7091SOL    HW122714   2.553   1.998  10.814  0.2036  1.1216  1.0399
 7091SOL    HW222715   2.466   2.082  10.722 -0.1238  0.1925  0.4915
 7092SOL     OW22716   3.183   2.396   9.757  0.6992 -0.4819  0.0592
 7092SOL    HW122717   3.222   2.376   9.672  0.7714  1.0990 -0.3144
 7092SOL    HW222718   3.250   2.372   9.821  2.9845  3.3137 -0.6131
 7093SOL     OW22719   4.810   1.001   8.577 -0.1515 -0.0662  0.5399
 7093SOL    HW122720   4.785   1.068   8.641 -3.0827 -1.0334  0.5763
 7093SOL    HW222721   4.839   1.049   8.500  0.5577  1.1584  1.5427
 7094SOL     OW22722   2.752   6.173   8.510  0.5557  0.6147  0.2079
 7094SOL    HW122723   2.787   6.261   8.495  0.8631  0.4105 -0.2808
 7094SOL    HW222724   2.817   6.130   8.566  0.1874  0.8419  0.8222
 7095SOL     OW22725   2.165   2.520   6.080 -0.1504  0.2521  0.0378
 7095SOL    HW122726   2.195   2.534   5.990  0.8751  0.4685  0.4010
 7095SOL    HW222727   2.096   2.584   6.093  0.9537  1.5025 -0.0153
 7096SOL     OW22728   2.301   2.514   9.005 -0.0050  0.1248 -0.0395
 7096SOL    HW122729   2.240   2.555   9.067 -1.7596 -0.7017 -1.1450
 7096SOL    HW222730   2.327   2.433   9.048 -1.0911 -0.3700 -0.2902
 7097SOL     OW22731   2.439   0.076   7.986  0.1323 -0.6722 -0.0198
 7097SOL    HW122732   2.529   0.104   7.968 -1.1281  2.8923 -1.9260
 7097SOL    HW222733   2.428   0.087   8.080  1.7187 -1.4464  0.2875
 7098SOL     OW22734   2.092   0.517   8.198 -0.1845  0.0993 -0.6210
 7098SOL    HW122735   2.111   0.513   8.292 -2.5593  2.7009  0.0915
 7098SOL    HW222736   2.178   0.521   8.157  0.9493 -1.7197  1.3302
 7099SOL     OW22737   2.039   7.565   9.300  0.2414  0.0293  0.2442
 7099SOL    HW122738   1.970   7.499   9.310  1.6332 -1.3566  1.3319
 7099SOL    HW222739   2.003   7.644   9.340 -1.3120 -0.1737 -0.6890
 7100SOL     OW22740   1.550   1.186   8.758  0.4085 -0.3045  0.8077
 7100SOL    HW122741   1.617   1.175   8.690  1.2373  0.7137  1.4342
 7100SOL    HW222742   1.504   1.267   8.733 -0.1520 -0.6355  0.7513
 7101SOL     OW22743   2.850   7.165   8.407 -0.0563 -0.0581  0.0547
 7101SOL    HW122744   2.930   7.163   8.459 -0.3255 -1.6479  0.4692
 7101SOL    HW222745   2.878   7.152   8.317  0.1874 -0.2559  0.1598
 7102SOL     OW22746   0.344   1.154   6.620  0.3037 -0.0490 -0.0063
 7102SOL    HW122747   0.376   1.102   6.546  0.5934  0.1731 -0.0388
 7102SOL    HW222748   0.261   1.114   6.643 -0.6902  0.9734 -1.6128
 7103SOL     OW22749   2.682   6.795   8.304  0.0707  0.1206 -0.1141
 7103SOL    HW122750   2.629   6.749   8.239  1.2283  0.1114 -1.0879
 7103SOL    HW222751   2.705   6.728   8.369  1.0617 -0.5175 -1.0878
 7104SOL     OW22752   3.511   0.445  10.419  0.0586 -0.6104  0.0785
 7104SOL    HW122753   3.436   0.434  10.478  1.6558 -1.9238  1.9838
 7104SOL    HW222754   3.533   0.538  10.425 -0.0117 -0.6567  1.3391
 7105SOL     OW22755   3.509   0.791  11.074 -0.3005 -0.5609 -0.9420
 7105SOL    HW122756   3.481   0.701  11.060 -0.8571 -0.2487 -1.9017
 7105SOL    HW222757   3.568   0.810  11.000 -0.2621 -0.1093 -0.7992
 7106SOL     OW22758   3.973   0.254   9.419  0.0627  0.1373  0.0458
 7106SOL    HW122759   3.929   0.256   9.503  0.6273  3.0727  0.3882
 7106SOL    HW222760   3.939   0.331   9.372  1.9189  0.2736 -1.1956
 7107SOL     OW22761   2.095   1.870   9.566 -0.6302  0.1676  0.1976
 7107SOL    HW122762   2.103   1.805   9.635 -2.1940 -0.0456  0.2121
 7107SOL    HW222763   2.009   1.909   9.580  0.1737  2.1184  0.0660
 7108SOL     OW22764   1.791   0.612   8.923  0.2060 -0.2492 -0.0380
 7108SOL    HW122765   1.799   0.664   9.003  0.0232 -0.5630  0.1859
 7108SOL    HW222766   1.879   0.612   8.885 -0.2291  2.0535 -1.1984
 7109SOL     OW22767   4.595   0.099   9.113 -0.2630  0.2090 -0.3132
 7109SOL    HW122768   4.573   0.132   9.200  0.6338  0.3053 -0.1099
 7109SOL    HW222769   4.615   0.006   9.128  0.1314  0.2846 -0.3746
 7110SOL     OW22770   3.316   1.159  11.129  0.7016 -0.7742 -0.7360
 7110SOL    HW122771   3.320   1.152  11.033  0.9373  0.3609 -0.8277
 7110SOL    HW222772   3.237   1.210  11.146  0.8655 -0.6424 -0.3586
 7111SOL     OW22773   3.321   0.260   8.362  0.0372  0.2998  0.2318
 7111SOL    HW122774   3.271   0.198   8.415 -0.7921 -1.1437 -2.0781
 7111SOL    HW222775   3.267   0.339   8.361 -0.6960 -0.1860  0.3162
 7112SOL     OW22776   3.708   7.261   7.647 -0.4285 -0.4994 -0.4678
 7112SOL    HW122777   3.643   7.326   7.677  0.0036 -0.8664  1.4343
 7112SOL    HW222778   3.706   7.267   7.552 -1.1782  1.5401 -0.3749
 7113SOL     OW22779   5.137   0.986   8.939 -0.0784 -0.0294 -0.4672
 7113SOL    HW122780   5.140   0.897   8.904  0.6906 -0.3817  0.4310
 7113SOL    HW222781   5.044   1.006   8.947 -0.2576 -0.7670 -0.6566
 7114SOL     OW22782   3.420   1.644   6.794 -0.0430 -0.3995 -0.0396
 7114SOL    HW122783   3.362   1.632   6.869  1.3604  2.1958  1.6157
 7114SOL    HW222784   3.373   1.704   6.736  0.4445  0.7976  0.7587
 7115SOL     OW22785   2.866   1.227   8.529 -0.0664  0.0824 -0.6168
 7115SOL    HW122786   2.828   1.158   8.583  0.3028  0.8870  0.7236
 7115SOL    HW222787   2.811   1.230   8.451 -0.4918 -1.2511 -0.3882
 7116SOL     OW22788   2.921   1.677   8.419  0.4239 -0.6196 -0.2284
 7116SOL    HW122789   2.960   1.590   8.419 -0.5952 -1.1246  1.5708
 7116SOL    HW222790   2.857   1.675   8.489 -0.8020  1.0909 -1.2187
 7117SOL     OW22791   3.421   2.181   8.712  0.0142  0.0958 -0.1281
 7117SOL    HW122792   3.336   2.197   8.670 -0.4786  0.7914  1.0794
 7117SOL    HW222793   3.438   2.088   8.697 -0.4374  0.1952 -1.3251
 7118SOL     OW22794   3.536   0.904   8.896  0.0440  0.1111 -0.4288
 7118SOL    HW122795   3.630   0.908   8.875  0.1950  0.4175  0.2721
 7118SOL    HW222796   3.492   0.908   8.811  0.6042  2.4062 -0.6709
 7119SOL     OW22797   2.435   1.611   9.049  0.1025  0.3487 -0.6844
 7119SOL    HW122798   2.521   1.601   9.008  0.3317  1.0844 -0.3993
 7119SOL    HW222799   2.414   1.704   9.037 -0.5029  0.2415 -0.4552
 7120SOL     OW22800   1.857   0.260   7.257 -0.0097 -0.5213  0.0454
 7120SOL    HW122801   1.816   0.197   7.197  0.5438 -1.2618  0.4304
 7120SOL    HW222802   1.815   0.243   7.342 -0.7770  0.5097 -0.1021
 7121SOL     OW22803   1.722   1.653   8.965 -0.1899 -0.0023 -0.0660
 7121SOL    HW122804   1.797   1.605   8.931  0.3345  0.7338  0.0190
 7121SOL    HW222805   1.751   1.745   8.966 -1.8664  0.6388 -2.2750
 7122SOL     OW22806   3.513   1.450   7.526 -0.2698  0.3302 -0.3040
 7122SOL    HW122807   3.533   1.356   7.518 -1.0891  0.0866  0.3173
 7122SOL    HW222808   3.577   1.483   7.589  0.0262  0.1910 -0.5288
 7123SOL     OW22809   3.182   1.703   8.251  0.1989  0.6961  0.0413
 7123SOL    HW122810   3.182   1.787   8.205 -1.8520 -0.2263 -1.8347
 7123SOL    HW222811   3.125   1.647   8.198 -0.1163 -1.2959  2.3245
 7124SOL     OW22812   4.326   0.348   9.249 -1.1191 -0.4685 -0.9911
 7124SOL    HW122813   4.301   0.421   9.305  1.0207 -2.6262  3.2761
 7124SOL    HW222814   4.420   0.339   9.261 -1.1926 -3.4800 -1.8400
 7125SOL     OW22815   2.254   1.148   7.110 -0.7269  0.0726  0.4465
 7125SOL    HW122816   2.269   1.146   7.205  1.3755  1.6753  0.2212
 7125SOL    HW222817   2.340   1.132   7.072 -1.6606 -1.2788 -1.2579
 7126SOL     OW22818   4.483   7.952   7.263 -0.2012  0.0241  0.8644
 7126SOL    HW122819   4.544   7.886   7.232  0.8552  0.6406  1.5653
 7126SOL    HW222820   4.398   7.908   7.266 -0.3712 -0.1314 -2.6890
 7127SOL     OW22821   2.957   0.811   8.311 -0.4056 -0.5262 -0.9054
 7127SOL    HW122822   2.983   0.762   8.233 -1.2337 -1.5395 -0.5666
 7127SOL    HW222823   3.003   0.895   8.303  0.7295 -1.1915 -1.7065
 7128SOL     OW22824   2.436   1.084   7.832  0.0154 -0.1468  0.4204
 7128SOL    HW122825   2.467   1.001   7.868  1.4537  0.7923  1.4484
 7128SOL    HW222826   2.499   1.149   7.863  0.0479  1.0662 -1.9730
 7129SOL     OW22827   2.721   0.681   6.650 -0.4882  0.1432 -0.1485
 7129SOL    HW122828   2.810   0.718   6.650 -0.5436  0.2787  0.0277
 7129SOL    HW222829   2.676   0.727   6.721 -0.3390 -0.7904  0.5772
 7130SOL     OW22830   2.526   1.491   7.974 -0.7532  0.8904 -0.1482
 7130SOL    HW122831   2.438   1.497   8.011 -0.7691  2.0049 -0.3368
 7130SOL    HW222832   2.574   1.562   8.017 -0.1701  0.7977 -0.6396
 7131SOL     OW22833   4.227   1.700   9.224 -0.4604 -0.7841  0.2477
 7131SOL    HW122834   4.318   1.688   9.252 -0.0329 -1.9922 -1.4733
 7131SOL    HW222835   4.220   1.792   9.201  1.3287 -1.2130 -2.5742
 7132SOL     OW22836   3.619   2.593   9.950 -0.2154 -0.5557  0.4736
 7132SOL    HW122837   3.642   2.569   9.860 -0.4360 -0.6522  0.4430
 7132SOL    HW222838   3.620   2.688   9.950  0.2249 -0.5571  0.4828
 7133SOL     OW22839   2.547   7.610   7.326 -0.3384  0.0285 -0.4055
 7133SOL    HW122840   2.599   7.604   7.246  0.3790 -2.3648  0.1377
 7133SOL    HW222841   2.610   7.632   7.394 -0.4035 -0.7848 -0.0723
 7134SOL     OW22842   1.989   2.420  11.300  0.5917  0.7728 -0.2073
 7134SOL    HW122843   1.985   2.480  11.226 -1.3493  0.6197 -0.2625
 7134SOL    HW222844   1.936   2.462  11.368  0.9855  0.1182  0.5206
 7135SOL     OW22845   2.487   0.006  10.257  0.0145 -0.8717 -0.7199
 7135SOL    HW122846   2.414   0.047  10.303  0.6821 -1.4466  0.9251
 7135SOL    HW222847   2.511  -0.068  10.312  2.0559 -0.4989 -1.0439
 7136SOL     OW22848   1.107   0.238   9.688  0.1296  0.0281 -0.5527
 7136SOL    HW122849   1.038   0.172   9.688  0.6442 -0.5132 -0.4519
 7136SOL    HW222850   1.065   0.316   9.650 -0.7171 -0.0900  0.1116
 7137SOL     OW22851   3.226   1.432   9.279 -0.1965 -0.1974  0.1657
 7137SOL    HW122852   3.314   1.399   9.295  1.6960  3.2422 -2.0592
 7137SOL    HW222853   3.193   1.381   9.206  0.9832  0.0739 -0.5694
 7138SOL     OW22854   4.387   0.661  11.811 -0.3443  0.2921 -0.0187
 7138SOL    HW122855   4.480   0.643  11.797 -0.2526  0.6579  0.1015
 7138SOL    HW222856   4.384   0.701  11.898 -0.7006 -0.3603  0.2743
 7139SOL     OW22857   4.535   0.981  10.961  0.1319 -0.4547  0.2390
 7139SOL    HW122858   4.500   0.909  10.908  0.1204  0.7041 -1.4216
 7139SOL    HW222859   4.513   1.060  10.910  2.6822  0.5208  0.5208
 7140SOL     OW22860   3.503   7.457   9.055  0.3820 -0.8570 -0.4745
 7140SOL    HW122861   3.581   7.464   9.001  1.2763  0.3948  0.9059
 7140SOL    HW222862   3.430   7.456   8.992  1.4062 -0.0434 -1.7232
 7141SOL     OW22863   3.943   0.074  10.003  0.4852  0.5588 -0.0946
 7141SOL    HW122864   3.976   0.161   9.982  0.1140  1.0446  1.2101
 7141SOL    HW222865   4.018   0.027  10.039  0.0187  1.4144  2.1631
 7142SOL     OW22866   3.072   0.681  10.023  0.2810 -0.1321 -0.3894
 7142SOL    HW122867   3.118   0.599  10.042 -0.8709 -0.4128  1.3717
 7142SOL    HW222868   3.113   0.713   9.942  1.7905 -1.6526 -0.2817
 7143SOL     OW22869   3.056   2.118  11.429 -0.1389  0.2580 -0.8461
 7143SOL    HW122870   3.139   2.135  11.385 -0.1416 -0.3398 -1.0900
 7143SOL    HW222871   2.993   2.105  11.358 -0.1805 -0.5335 -0.6828
 7144SOL     OW22872   2.664   1.009  11.178 -0.4283 -0.0244  0.0793
 7144SOL    HW122873   2.616   0.990  11.097 -1.0356  1.5210  0.0299
 7144SOL    HW222874   2.670   1.105  11.179  0.6496 -0.0843  1.2586
 7145SOL     OW22875   2.946   1.396  10.939 -0.4677  0.1235 -0.2531
 7145SOL    HW122876   2.890   1.410  10.863  1.5224  0.8184 -1.6843
 7145SOL    HW222877   2.952   1.301  10.947 -2.1033  0.0252  0.1752
 7146SOL     OW22878   4.098   1.402  10.599  0.0365  0.2504  0.3345
 7146SOL    HW122879   4.114   1.354  10.680  2.8416 -1.3430 -0.9977
 7146SOL    HW222880   4.120   1.340  10.529 -0.1672  2.2064 -1.5986
 7147SOL     OW22881   2.639   7.616  10.789 -0.1663 -0.5598  0.0199
 7147SOL    HW122882   2.664   7.620  10.696 -0.3015  1.0666  0.0177
 7147SOL    HW222883   2.595   7.532  10.798  0.6968 -1.1685 -1.1725
 7148SOL     OW22884   2.836   6.428   9.904  0.3383  0.0371  0.6773
 7148SOL    HW122885   2.780   6.499   9.874 -1.7391 -1.9377 -0.4053
 7148SOL    HW222886   2.922   6.447   9.866 -0.7035  0.8818 -1.4187
 7149SOL     OW22887   1.405   3.022   9.126  0.2167 -0.1957 -0.2727
 7149SOL    HW122888   1.460   3.035   9.049  1.9787  0.4467  1.0249
 7149SOL    HW222889   1.387   3.111   9.158  0.6496 -0.4779  0.8043
 7150SOL     OW22890   2.807   7.152  11.349  0.1402  0.7002  0.0225
 7150SOL    HW122891   2.835   7.237  11.317  3.8657  0.0053  0.8886
 7150SOL    HW222892   2.722   7.168  11.390  0.6437  3.9642  0.0563
 7151SOL     OW22893   2.008   2.088  10.208 -0.1980  0.3967 -0.0095
 7151SOL    HW122894   2.066   2.138  10.151 -0.6019  1.0859  0.1757
 7151SOL    HW222895   2.021   2.125  10.295 -0.2900 -0.0129  0.1839
 7152SOL     OW22896   2.957   1.019  10.723 -0.0323 -0.7469  0.3927
 7152SOL    HW122897   2.961   1.111  10.697 -1.4075 -0.9282 -0.6040
 7152SOL    HW222898   2.985   0.971  10.646  1.0235 -1.1856  1.0232
 7153SOL     OW22899   4.033   1.295  11.711 -0.7848 -0.1788  0.1685
 7153SOL    HW122900   4.005   1.363  11.650 -1.2545 -0.1573  0.4031
 7153SOL    HW222901   4.105   1.251  11.667 -0.9210  0.0372 -0.2718
 7154SOL     OW22902   3.735   0.571   9.774  0.6566 -0.1558 -0.3143
 7154SOL    HW122903   3.782   0.566   9.690  1.0632  0.9426 -0.1646
 7154SOL    HW222904   3.688   0.655   9.770  1.1802  0.2070  0.8107
 7155SOL     OW22905   5.145   0.174   8.712  0.3630 -0.3771 -0.0798
 7155SOL    HW122906   5.112   0.111   8.777 -0.3686  1.5596  1.5243
 7155SOL    HW222907   5.072   0.235   8.699  1.2678  0.5172 -1.1061
 7156SOL     OW22908   0.940   0.454   9.896  0.3580  0.5399  0.2365
 7156SOL    HW122909   1.019   0.473   9.845  1.5218  0.2829  1.8540
 7156SOL    HW222910   0.926   0.533   9.948 -2.9881  2.3318 -2.9715
 7157SOL     OW22911   3.815   2.061  10.763  0.3126  0.1624 -0.0476
 7157SOL    HW122912   3.910   2.066  10.748  0.7007  2.2321  2.4883
 7157SOL    HW222913   3.803   1.977  10.809  0.8442 -0.2543 -0.6491
 7158SOL     OW22914   3.311   2.385   7.182  0.4278  0.0851  0.2330
 7158SOL    HW122915   3.289   2.363   7.272 -0.6942  0.2980  0.0209
 7158SOL    HW222916   3.228   2.407   7.141  1.0888  1.3472 -0.4898
 7159SOL     OW22917   4.432   1.441   8.197  0.2001  0.3320  0.2525
 7159SOL    HW122918   4.519   1.446   8.157 -0.2878  0.9650 -0.7824
 7159SOL    HW222919   4.435   1.506   8.267  0.0674  1.5440 -0.8250
 7160SOL     OW22920   5.024   2.210   8.850 -0.3509  0.0129 -0.3594
 7160SOL    HW122921   4.933   2.229   8.871 -0.0503  1.2020 -0.0967
 7160SOL    HW222922   5.060   2.293   8.819  0.0351 -0.9490 -2.7312
 7161SOL     OW22923   1.050   0.861  10.731  0.3707 -0.0360  0.2143
 7161SOL    HW122924   1.082   0.949  10.753  1.5890 -0.0255 -1.4319
 7161SOL    HW222925   0.987   0.876  10.660 -0.3569 -0.4135  0.7613
 7162SOL     OW22926   2.279   1.165  11.305  0.3420 -0.1574  0.2684
 7162SOL    HW122927   2.346   1.108  11.342  0.4959 -0.6219 -0.6849
 7162SOL    HW222928   2.200   1.146  11.355  0.4466 -1.0580  0.1111
 7163SOL     OW22929   3.463   1.727  11.525 -0.7000  0.1462  0.3033
 7163SOL    HW122930   3.462   1.683  11.441 -0.6648  1.4548 -0.4080
 7163SOL    HW222931   3.378   1.706  11.564 -0.9253 -0.0572 -0.2888
 7164SOL     OW22932   2.586   0.178   9.594  0.0141  0.0233  0.4997
 7164SOL    HW122933   2.498   0.208   9.618  0.7958  1.6337  1.5232
 7164SOL    HW222934   2.636   0.184   9.676  1.6115  1.1887 -0.5170
 7165SOL     OW22935   1.739   0.158  10.533  0.6268 -0.3596  0.3034
 7165SOL    HW122936   1.748   0.207  10.451  0.3907 -1.5032 -0.4296
 7165SOL    HW222937   1.742   0.225  10.601  1.8184  0.5383 -0.5792
 7166SOL     OW22938   5.134   1.585   7.574  0.3275 -0.0492  0.0456
 7166SOL    HW122939   5.079   1.630   7.638 -0.1388 -1.5992  0.7936
 7166SOL    HW222940   5.082   1.583   7.494  0.3489  0.7052  0.0119
 7167SOL     OW22941   2.698   1.245  11.368 -0.6034 -0.3886  0.4778
 7167SOL    HW122942   2.656   1.257  11.283  1.3793  1.6645 -0.3356
 7167SOL    HW222943   2.634   1.280  11.431 -0.8367  1.1291 -0.5356
 7168SOL     OW22944   1.419   7.165  10.469 -0.1691 -0.0096 -0.0856
 7168SOL    HW122945   1.455   7.085  10.508 -2.7434 -0.9418  0.5500
 7168SOL    HW222946   1.326   7.164  10.492 -0.2057  3.5340  0.5191
 7169SOL     OW22947   5.334   0.633   9.994  0.2540  0.0431 -0.7242
 7169SOL    HW122948   5.393   0.570  10.036  1.6425  1.7845  0.0331
 7169SOL    HW222949   5.297   0.683  10.066 -1.5641 -0.4572 -1.2564
 7170SOL     OW22950   4.710   2.015  10.675  0.0542 -0.2080 -0.5719
 7170SOL    HW122951   4.749   1.962  10.605  1.6629  0.7885 -0.4611
 7170SOL    HW222952   4.627   2.046  10.637  0.0749 -1.0846 -1.3870
 7171SOL     OW22953   1.918   5.894  10.906 -0.1323 -0.2461 -0.1152
 7171SOL    HW122954   1.917   5.818  10.964  1.1792  0.0122  0.2882
 7171SOL    HW222955   1.990   5.877  10.845 -1.1833 -0.2872 -1.3786
 7172SOL     OW22956   6.067   0.331   9.206  0.8996  0.3575  0.3143
 7172SOL    HW122957   6.134   0.396   9.182  1.0202  0.5385  1.1330
 7172SOL    HW222958   6.117   0.253   9.228  0.8864  0.6853  1.5458
 7173SOL     OW22959   3.515   1.007   9.308 -0.0177 -0.4274  0.6451
 7173SOL    HW122960   3.484   0.941   9.246  0.1650  0.8808 -0.9121
 7173SOL    HW222961   3.609   0.993   9.313 -0.1898 -1.3529  1.6666
 7174SOL     OW22962   2.402   7.805   8.574 -0.0246  0.3471  0.1531
 7174SOL    HW122963   2.392   7.789   8.480 -0.5259  0.4539  0.1848
 7174SOL    HW222964   2.386   7.899   8.584 -1.7064  0.0423  0.5639
 7175SOL     OW22965   2.035   7.924  11.132  0.0958  0.0286  0.0479
 7175SOL    HW122966   2.035   7.962  11.045 -0.0367  1.0885  0.4928
 7175SOL    HW222967   1.991   7.989  11.187  0.7891 -0.3013  1.0334
 7176SOL     OW22968   3.596   1.038  10.433  0.6930  0.0796 -0.4919
 7176SOL    HW122969   3.509   1.075  10.451  1.0295  0.5277  0.2388
 7176SOL    HW222970   3.604   0.963  10.492  1.5073  1.1203  0.7791
 7177SOL     OW22971   5.155   7.709  10.641 -0.6186  0.0195 -0.5833
 7177SOL    HW122972   5.204   7.634  10.606  0.7700  0.7406 -0.2887
 7177SOL    HW222973   5.218   7.782  10.637 -1.0236  0.5613  1.6544
 7178SOL     OW22974   2.459   1.134   9.508  0.2018  0.6992  0.0414
 7178SOL    HW122975   2.448   1.140   9.603 -2.5732  0.5084 -0.2058
 7178SOL    HW222976   2.379   1.171   9.471  0.4025 -0.8575 -2.1857
 7179SOL     OW22977   3.141   7.208   9.139 -0.2927  0.0254  0.2272
 7179SOL    HW122978   3.140   7.213   9.235 -0.0331  1.6766  0.1719
 7179SOL    HW222979   3.131   7.298   9.110  0.4026 -0.3571 -1.3120
 7180SOL     OW22980   2.644   3.567  10.116 -0.2274 -0.2500 -0.5443
 7180SOL    HW122981   2.672   3.629  10.049 -2.9046  1.1836 -0.4836
 7180SOL    HW222982   2.674   3.604  10.199 -0.0569 -0.1093 -0.6703
 7181SOL     OW22983   3.571   1.695   8.919 -0.1796 -0.0757  0.3412
 7181SOL    HW122984   3.480   1.665   8.915 -0.6683  1.4269 -0.4667
 7181SOL    HW222985   3.596   1.683   9.011 -0.9557 -1.0974  0.4468
 7182SOL     OW22986   4.998   1.479  10.153  0.2285 -0.3301 -0.0481
 7182SOL    HW122987   4.928   1.497  10.216 -0.1053  2.1945 -1.0211
 7182SOL    HW222988   5.035   1.565  10.133  1.0929 -1.1860 -2.4302
 7183SOL     OW22989   2.757   0.931  10.559 -0.0457  0.1390  0.1877
 7183SOL    HW122990   2.755   1.006  10.617  1.1604 -0.8356  1.5860
 7183SOL    HW222991   2.850   0.917  10.541 -0.2256 -1.0734  0.0686
 7184SOL     OW22992   1.467   4.831   9.108  0.5311  0.2478  0.3221
 7184SOL    HW122993   1.398   4.801   9.167  1.6734 -2.7176  0.2915
 7184SOL    HW222994   1.548   4.801   9.148  1.4392 -0.7276 -2.0749
 7185SOL     OW22995   3.562   0.709  10.271  0.2302  0.5406 -0.2188
 7185SOL    HW122996   3.532   0.671  10.188 -0.1350 -1.1951  0.6588
 7185SOL    HW222997   3.481   0.732  10.317  0.3033 -0.9354  0.7145
 7186SOL     OW22998   2.149   1.865  10.060  0.6208  0.7117  0.1746
 7186SOL    HW122999   2.091   1.918  10.115  0.9509  1.1881  0.0807
 7186SOL    HW223000   2.237   1.883  10.095  0.7418  0.2617  0.1052
 7187SOL     OW23001   5.980   0.852   9.119 -0.8551 -0.1598 -0.0424
 7187SOL    HW123002   6.068   0.878   9.092 -1.5366  0.6177 -1.5963
 7187SOL    HW223003   5.977   0.758   9.100  0.1208 -0.5268  1.4457
 7188SOL     OW23004   3.582   1.167   9.641 -0.5301  0.5536  0.3938
 7188SOL    HW123005   3.549   1.151   9.553 -1.8240  1.1129  0.7509
 7188SOL    HW223006   3.520   1.121   9.698  1.3183 -1.4097  0.9811
 7189SOL     OW23007   2.879   1.896   9.143 -0.1187  0.0529  0.4525
 7189SOL    HW123008   2.875   1.989   9.164  3.0168  1.1077 -2.6359
 7189SOL    HW223009   2.915   1.855   9.222 -0.4959  1.6099  1.4725
 7190SOL     OW23010   3.846   1.020   7.848  0.0456  0.0100  0.3121
 7190SOL    HW123011   3.851   0.941   7.795 -0.1629 -0.9842  1.7090
 7190SOL    HW223012   3.936   1.039   7.872 -0.0798 -1.2707  1.9818
 7191SOL     OW23013   1.482   1.599   9.724 -0.0743 -0.0814 -0.5961
 7191SOL    HW123014   1.501   1.594   9.630  0.0225 -1.0043 -0.5378
 7191SOL    HW223015   1.484   1.693   9.744 -0.7761  0.1769 -1.6514
 7192SOL     OW23016   2.874   2.310   8.603 -0.4387  0.3477  0.3004
 7192SOL    HW123017   2.910   2.276   8.521  2.1694  0.5986  1.2472
 7192SOL    HW223018   2.842   2.232   8.649 -3.4625  0.3704 -1.5412
 7193SOL     OW23019   1.574   0.164   9.194 -0.2326  0.5101  0.5063
 7193SOL    HW123020   1.611   0.212   9.119 -0.1101 -0.6033 -0.1583
 7193SOL    HW223021   1.480   0.168   9.180 -0.2133  0.3716  0.3257
 7194SOL     OW23022   1.975   0.370  10.733  0.2657 -0.0200 -0.5300
 7194SOL    HW123023   1.884   0.392  10.717  0.4890  0.7379 -0.7839
 7194SOL    HW223024   2.022   0.403  10.657  0.6971 -0.8251 -0.6240
 7195SOL     OW23025   2.177   2.877  12.110  0.1218  0.2507 -0.0758
 7195SOL    HW123026   2.223   2.798  12.137 -1.6570 -0.8912 -0.2633
 7195SOL    HW223027   2.198   2.887  12.017 -0.0079 -0.2458 -0.1561
 7196SOL     OW23028   2.797   6.139  10.281  0.2279 -0.1068 -0.4848
 7196SOL    HW123029   2.864   6.074  10.260 -0.3149 -0.6663 -0.5362
 7196SOL    HW223030   2.724   6.117  10.224  0.1096  0.6841 -0.6487
 7197SOL     OW23031   0.580   2.109  11.874 -0.1202 -0.2233  0.5144
 7197SOL    HW123032   0.504   2.165  11.893 -1.4440 -1.9437  0.5048
 7197SOL    HW223033   0.641   2.167  11.829 -1.2930  1.2974  0.7861
 7198SOL     OW23034   3.434   2.092  10.185 -0.1265  0.3666 -0.1990
 7198SOL    HW123035   3.447   2.052  10.270 -1.2290 -0.1551 -0.2614
 7198SOL    HW223036   3.414   2.184  10.204  1.7522  0.7677 -0.0261
 7199SOL     OW23037   3.698   1.002   9.940 -0.4090 -0.2987 -0.4294
 7199SOL    HW123038   3.644   1.077   9.966  0.5702  0.1264  0.4595
 7199SOL    HW223039   3.713   0.954  10.021 -0.8839 -1.3716 -0.9692
 7200SOL     OW23040   4.362   0.088  10.926 -0.1004 -0.1922 -0.0908
 7200SOL    HW123041   4.395   0.157  10.868 -0.6345 -2.1144 -2.8708
 7200SOL    HW223042   4.271   0.112  10.944  0.1022  0.4723  0.0787
 7201SOL     OW23043   1.253   6.226   7.647 -0.0589 -0.2241  0.0158
 7201SOL    HW123044   1.248   6.141   7.602 -0.9357  0.6906 -1.7535
 7201SOL    HW223045   1.259   6.204   7.740  1.7424 -2.2281 -0.4916
 7202SOL     OW23046   3.040   1.595  11.094  0.0580  0.3534 -0.1753
 7202SOL    HW123047   3.026   1.515  11.044 -0.0844  0.7640 -0.8018
 7202SOL    HW223048   2.952   1.623  11.119  0.1538 -0.0729  0.6691
 7203SOL     OW23049   1.970   0.888  12.298 -0.1728  0.2526 -0.1462
 7203SOL    HW123050   1.895   0.860  12.246  0.0742  0.7770 -0.7916
 7203SOL    HW223051   2.032   0.814  12.292 -0.8666 -0.4368  0.8859
 7204SOL     OW23052   6.401   0.911  10.307 -0.0287  0.3005 -0.2732
 7204SOL    HW123053   6.327   0.851  10.320  0.3365 -0.0416  0.2634
 7204SOL    HW223054   6.470   0.875  10.362 -0.2219  1.9545  1.1312
 7205SOL     OW23055   3.722   2.613   9.328 -0.0095 -0.1821 -0.4357
 7205SOL    HW123056   3.724   2.562   9.246  1.5553 -1.2233  0.1784
 7205SOL    HW223057   3.635   2.598   9.363 -0.5091 -0.2008 -1.6316
 7206SOL     OW23058   3.312   7.965  10.689  0.3501  0.2106 -0.3347
 7206SOL    HW123059   3.395   7.995  10.725  0.2626  0.7234 -0.5480
 7206SOL    HW223060   3.269   7.920  10.761 -0.1573  1.8776  0.4543
 7207SOL     OW23061   3.807   6.368   9.945 -0.3865  0.1599 -0.8609
 7207SOL    HW123062   3.754   6.320  10.009 -2.0607  0.3765 -2.0350
 7207SOL    HW223063   3.897   6.360   9.978 -1.0954 -0.4453  1.0455
 7208SOL     OW23064   3.026   0.613   9.471  0.2966 -0.7801 -0.5601
 7208SOL    HW123065   3.070   0.655   9.397  0.4775  0.4520  0.2119
 7208SOL    HW223066   3.040   0.673   9.545 -3.3950  0.2272 -0.4503
 7209SOL     OW23067   0.949   6.363   7.771 -0.8594  0.2839 -0.7080
 7209SOL    HW123068   0.981   6.274   7.775 -0.3191  0.5253  1.7163
 7209SOL    HW223069   0.929   6.377   7.678 -1.7380 -2.5818 -1.0471
 7210SOL     OW23070   2.733   1.476  10.769 -0.2184 -0.5050 -0.2957
 7210SOL    HW123071   2.654   1.450  10.816 -1.4535 -0.2643 -2.1198
 7210SOL    HW223072   2.702   1.496  10.681  1.7749  0.3761 -0.8421
 7211SOL     OW23073   3.021   0.097  11.324  0.7903  0.4583  0.1292
 7211SOL    HW123074   3.026   0.096  11.228 -0.9578  1.6156 -0.0211
 7211SOL    HW223075   3.035   0.006  11.349 -2.1730 -0.5985 -1.5158
 7212SOL     OW23076   4.342   0.559  10.008  0.1918 -0.4548  0.1086
 7212SOL    HW123077   4.310   0.506   9.935  1.8430 -2.1595  0.5631
 7212SOL    HW223078   4.421   0.514  10.038  1.3293  1.9273  0.9367
 7213SOL     OW23079   2.706   2.017  11.594 -0.0091  0.3703 -0.2667
 7213SOL    HW123080   2.618   2.025  11.632 -0.2271  0.5687 -0.8064
 7213SOL    HW223081   2.754   2.092  11.627 -0.6292  1.3654 -1.5135
 7214SOL     OW23082   4.703   1.758  11.510  0.1956 -0.0357  0.2215
 7214SOL    HW123083   4.749   1.776  11.592 -1.4811  1.4033  0.9282
 7214SOL    HW223084   4.667   1.670  11.522  1.4590 -0.5722  0.2589
 7215SOL     OW23085   2.322   0.195   9.644  0.3639 -0.5783 -0.2430
 7215SOL    HW123086   2.232   0.166   9.632  0.1192 -0.4816  1.1560
 7215SOL    HW223087   2.341   0.177   9.736  1.5644 -0.0155 -0.3547
 7216SOL     OW23088   4.889   0.685  10.593 -0.2418  0.3321 -0.0712
 7216SOL    HW123089   4.828   0.621  10.631  0.4559 -0.0665  0.3840
 7216SOL    HW223090   4.975   0.660  10.626  0.1908  0.8437 -0.7818
 7217SOL     OW23091   3.155   7.516   9.976  0.2957 -0.2469 -0.3178
 7217SOL    HW123092   3.224   7.485   9.917  0.8654  0.6303 -0.1257
 7217SOL    HW223093   3.117   7.592   9.932  0.0793 -0.1659  0.0044
 7218SOL     OW23094   3.676   7.806   9.820  0.0032 -0.6668  0.1870
 7218SOL    HW123095   3.726   7.726   9.809  0.2011 -0.5011 -0.1136
 7218SOL    HW223096   3.687   7.829   9.913 -0.0050 -0.9540  0.2578
 7219SOL     OW23097   2.007   7.569  10.484 -0.0924 -0.0794  0.2045
 7219SOL    HW123098   1.985   7.548  10.575 -0.4084 -1.8540 -0.2407
 7219SOL    HW223099   1.992   7.487  10.436  1.5616  0.3791 -1.1903
 7220SOL     OW23100   4.635   1.588  10.069 -0.1972  0.4619 -0.0086
 7220SOL    HW123101   4.688   1.545  10.001  0.4278  1.3230 -0.0700
 7220SOL    HW223102   4.587   1.656  10.022 -0.1545  0.7242  0.3256
 7221SOL     OW23103   3.673   7.850  11.285  0.2714  0.0396  0.5447
 7221SOL    HW123104   3.711   7.933  11.314 -1.4871  1.6919 -1.5435
 7221SOL    HW223105   3.745   7.805  11.241  0.6119  1.7718 -0.7748
 7222SOL     OW23106   2.935   0.399  10.234 -0.1373 -0.9346 -0.7113
 7222SOL    HW123107   2.899   0.485  10.253  0.8612 -0.7238  0.3636
 7222SOL    HW223108   2.859   0.342  10.225 -0.8207  0.0708 -1.6302
 7223SOL     OW23109   3.364   0.416   9.890  0.5137  0.0768 -0.0618
 7223SOL    HW123110   3.441   0.360   9.879  0.5860 -0.2643  1.8101
 7223SOL    HW223111   3.318   0.410   9.807  1.2892 -1.5961 -0.4199
 7224SOL     OW23112   4.343   1.299   9.733  0.0964  0.1799 -0.0049
 7224SOL    HW123113   4.319   1.209   9.714  0.2116  0.0101  0.6262
 7224SOL    HW223114   4.433   1.307   9.699  0.9947 -0.6602  2.0114
 7225SOL     OW23115   4.383   7.950   8.480  0.0263  0.0788  0.4402
 7225SOL    HW123116   4.398   8.044   8.488  1.9072  0.1072 -1.9561
 7225SOL    HW223117   4.326   7.941   8.403  1.1098 -0.7313 -0.3123
 7226SOL     OW23118   4.167   0.052  10.186 -0.0580  0.0721 -0.0933
 7226SOL    HW123119   4.210  -0.025  10.149 -0.6197 -0.4057  0.2293
 7226SOL    HW223120   4.231   0.087  10.249  0.9539  0.9657 -1.5595
 7227SOL     OW23121   2.133   2.563  11.924  0.4062  0.4268  0.0052
 7227SOL    HW123122   2.138   2.543  11.830 -1.2194 -0.4856  0.0694
 7227SOL    HW223123   2.040   2.582  11.939  0.7630  1.2913  1.3106
 7228SOL     OW23124   4.476   1.325  12.417 -0.0498  0.3170  0.3267
 7228SOL    HW123125   4.386   1.297  12.400 -0.1794  1.4695 -1.1104
 7228SOL    HW223126   4.526   1.295  12.341  1.2278 -1.9360  1.9266
 7229SOL     OW23127   4.007   2.372   9.939 -0.0855 -0.1604  0.0414
 7229SOL    HW123128   4.068   2.430   9.986 -0.5434  0.4391 -0.0825
 7229SOL    HW223129   4.008   2.404   9.849 -1.2114  0.4232  0.2083
 7230SOL     OW23130   3.312   0.476   9.435 -0.3975  0.2043  0.0543
 7230SOL    HW123131   3.255   0.514   9.368 -1.1410 -0.9090  0.0366
 7230SOL    HW223132   3.388   0.534   9.437 -0.6725  0.6471 -1.2624
 7231SOL     OW23133   2.881   0.056  10.375 -0.1998 -0.6534  0.3165
 7231SOL    HW123134   2.954   0.030  10.319 -1.3208 -1.4848 -0.8230
 7231SOL    HW223135   2.817   0.095  10.315 -1.4737 -1.6527  0.9739
 7232SOL     OW23136   1.362   1.845  10.348 -0.1601 -0.0702 -0.8340
 7232SOL    HW123137   1.397   1.858  10.436 -0.3565 -1.7331 -0.4770
 7232SOL    HW223138   1.286   1.904  10.343  2.1637  3.1499 -1.4217
 7233SOL     OW23139   2.830   3.013   9.932 -0.3174  0.4819 -0.1452
 7233SOL    HW123140   2.852   3.106   9.929  0.4427  0.2931 -0.6360
 7233SOL    HW223141   2.774   2.999   9.856 -0.8756  0.6373  0.2271
 7234SOL     OW23142   4.491   0.503  10.606  0.3299  0.2602 -0.1248
 7234SOL    HW123143   4.504   0.524  10.513 -0.4309  1.2737 -0.0214
 7234SOL    HW223144   4.563   0.548  10.650 -0.2214  1.1453 -0.0893
 7235SOL     OW23145   3.760   0.619   9.394  0.6087 -0.5042 -0.2497
 7235SOL    HW123146   3.789   0.652   9.309  2.6785 -1.7552 -0.0803
 7235SOL    HW223147   3.839   0.588   9.437 -0.0227  1.7730  2.9981
 7236SOL     OW23148   2.130   2.032  11.063  0.0671 -0.3151 -0.0820
 7236SOL    HW123149   2.225   2.034  11.071  0.3109  1.4420 -2.4982
 7236SOL    HW223150   2.108   2.110  11.014 -2.8238  0.1015  1.6249
 7237SOL     OW23151   3.486   1.292   9.264  0.7394  0.1528  0.8127
 7237SOL    HW123152   3.536   1.264   9.187  2.4622  2.0492  1.1501
 7237SOL    HW223153   3.467   1.211   9.311  1.7533 -0.8217 -0.3854
 7238SOL     OW23154   3.341   0.940  10.083 -0.3975 -0.1027 -0.1920
 7238SOL    HW123155   3.306   0.852  10.100  0.4614 -0.2805  0.7792
 7238SOL    HW223156   3.413   0.949  10.145  0.0936  0.9586 -0.8911
 7239SOL     OW23157   2.967   0.150  11.600  0.4650 -0.2044  0.0037
 7239SOL    HW123158   2.946   0.151  11.506 -0.8067 -0.0643  0.2765
 7239SOL    HW223159   3.058   0.182  11.604  0.7037 -0.6701 -1.2087
 7240SOL     OW23160   3.956   0.526   9.600  0.0432 -0.2190 -0.0829
 7240SOL    HW123161   4.017   0.598   9.615  0.0532 -0.4812  1.2682
 7240SOL    HW223162   4.003   0.448   9.627 -0.2518 -0.6423 -0.7774
 7241SOL     OW23163   2.913   0.120   9.417 -0.2151  0.2227  0.3047
 7241SOL    HW123164   2.922   0.209   9.383 -0.5806  0.0575 -0.2488
 7241SOL    HW223165   2.841   0.082   9.366 -0.2076 -0.3175  0.6832
 7242SOL     OW23166   2.728   0.836  10.822  0.8219 -0.0869  0.2891
 7242SOL    HW123167   2.756   0.851  10.732  0.5344 -0.4826  0.1328
 7242SOL    HW223168   2.751   0.745  10.841 -1.1352 -0.7185 -0.1530
 7243SOL     OW23169   1.507   1.443  11.786  0.2025 -0.2990 -0.4494
 7243SOL    HW123170   1.470   1.500  11.719 -0.0629  0.0987  0.0318
 7243SOL    HW223171   1.536   1.365  11.737  0.6407  0.2670 -1.1146
 7244SOL     OW23172   3.301   7.967  11.365  0.6084 -0.1790  0.2756
 7244SOL    HW123173   3.317   7.928  11.279  1.7828  1.5232 -0.3445
 7244SOL    HW223174   3.312   8.061  11.350  0.2393  0.2004  2.1766
 7245SOL     OW23175   2.612   0.524  10.114 -0.0293 -0.2194 -0.5237
 7245SOL    HW123176   2.572   0.460  10.055  2.0020 -1.1869 -0.9362
 7245SOL    HW223177   2.698   0.542  10.076  0.0653  1.6400  0.4111
 7246SOL     OW23178   1.631   6.078   9.986  0.7389  0.4386 -0.3689
 7246SOL    HW123179   1.669   6.082   9.898 -0.5317 -2.8041 -1.1959
 7246SOL    HW223180   1.549   6.127   9.979  0.2859 -0.4102 -1.2411
 7247SOL     OW23181   2.275   0.514   9.646 -0.0629 -0.9504 -0.0832
 7247SOL    HW123182   2.228   0.535   9.727  0.0294 -1.5115  0.1210
 7247SOL    HW223183   2.234   0.433   9.615 -1.4269  0.2618 -1.6526
 7248SOL     OW23184   3.227   2.026  10.832  0.2437 -0.1630 -0.4057
 7248SOL    HW123185   3.294   1.999  10.769  0.8122 -0.8149  0.4473
 7248SOL    HW223186   3.170   2.085  10.783 -0.0214 -1.5736 -1.8562
 7249SOL     OW23187   3.065   7.341   7.928 -0.1987  0.7588  0.1340
 7249SOL    HW123188   3.139   7.335   7.988 -0.8372  1.3563  1.0146
 7249SOL    HW223189   2.997   7.385   7.979 -0.9020  0.9042 -0.9012
 7250SOL     OW23190   0.434   0.934  10.503  0.1670 -0.4117 -0.8384
 7250SOL    HW123191   0.450   1.029  10.498  1.1343 -0.3924  1.3636
 7250SOL    HW223192   0.345   0.924  10.470  0.1056  1.2346 -1.3096
 7251SOL     OW23193   2.355   0.307  10.721 -0.0081  0.1085 -0.4753
 7251SOL    HW123194   2.306   0.232  10.755  0.3039  0.2416  0.2833
 7251SOL    HW223195   2.409   0.270  10.651 -2.4074  0.2457 -2.5531
 7252SOL     OW23196   2.207   1.463  12.399 -0.6726  0.3010 -0.2463
 7252SOL    HW123197   2.232   1.377  12.367  0.0008  1.2948 -2.5722
 7252SOL    HW223198   2.274   1.522  12.365 -1.6072  1.8768  0.5196
 7253SOL     OW23199   3.824   0.662  10.469  0.2343  0.3317  0.3697
 7253SOL    HW123200   3.888   0.598  10.499 -0.2720 -0.3170  0.0834
 7253SOL    HW223201   3.802   0.635  10.380  0.6390  1.3917 -0.0770
 7254SOL     OW23202   2.001   0.889   8.757 -0.1201  0.1177 -0.4859
 7254SOL    HW123203   1.940   0.949   8.800 -0.6016 -0.0167 -0.9687
 7254SOL    HW223204   2.056   0.945   8.703 -0.4076  0.1539 -0.7454
 7255SOL     OW23205   4.374   7.091   8.818  0.2864 -0.4390 -0.3934
 7255SOL    HW123206   4.292   7.055   8.784 -0.0277 -0.0965 -0.0071
 7255SOL    HW223207   4.418   7.016   8.858 -1.0438 -0.1525  1.7372
 7256SOL     OW23208   4.820   0.158   9.518 -0.1979  0.3728  0.5197
 7256SOL    HW123209   4.849   0.231   9.573  1.6785  0.5349 -0.5870
 7256SOL    HW223210   4.825   0.082   9.575  2.2538  0.4473  0.5214
 7257SOL     OW23211   2.476   1.017  11.387 -0.1748 -0.6266  0.3599
 7257SOL    HW123212   2.533   1.033  11.462  0.4429 -0.5029 -0.1313
 7257SOL    HW223213   2.536   1.003  11.313 -0.7794 -0.4651 -0.1704
 7258SOL     OW23214   4.785   7.320  12.188  0.5530 -0.1355  0.1806
 7258SOL    HW123215   4.741   7.328  12.104 -0.2856  2.4680  0.7709
 7258SOL    HW223216   4.720   7.278  12.245 -0.6026  2.0741  0.5871
 7259SOL     OW23217   1.781   0.663  11.019 -0.0958  0.7491 -0.1669
 7259SOL    HW123218   1.861   0.702  10.983  1.0680 -1.1146  0.3013
 7259SOL    HW223219   1.803   0.572  11.036 -1.6595  0.6970  2.0491
 7260SOL     OW23220   3.080   0.165   9.647  0.0995  0.4146  0.0015
 7260SOL    HW123221   3.073   0.070   9.650  2.0780  0.2415  0.0712
 7260SOL    HW223222   2.997   0.194   9.609  0.0370 -1.4274 -1.3867
 7261SOL     OW23223   4.252   1.043   8.612 -0.4535 -0.3849 -0.2523
 7261SOL    HW123224   4.247   1.019   8.520  0.3361  0.9799 -0.6787
 7261SOL    HW223225   4.178   1.103   8.625 -1.2352 -1.4377  0.3045
 7262SOL     OW23226   2.604   1.405   8.770 -0.4070 -0.2537 -0.1010
 7262SOL    HW123227   2.685   1.369   8.734  0.1953 -0.9655  1.8474
 7262SOL    HW223228   2.623   1.498   8.784 -0.0691 -0.3328 -0.0251
 7263SOL     OW23229   2.823   0.136   9.019 -0.0785  0.1262 -0.1409
 7263SOL    HW123230   2.906   0.180   9.039  0.0723 -0.3671  0.3161
 7263SOL    HW223231   2.820   0.134   8.923 -0.4511  1.8222 -0.1966
 7264SOL     OW23232   2.021   1.432  10.217  0.0780  0.1217  0.2682
 7264SOL    HW123233   2.082   1.408  10.286 -0.8126  0.0076  1.0306
 7264SOL    HW223234   1.946   1.469  10.263 -2.2138 -3.3656 -0.2838
 7265SOL     OW23235   3.980   7.569  10.251 -0.4152 -0.2246  0.4588
 7265SOL    HW123236   3.909   7.544  10.310 -1.7095 -1.4070 -1.5053
 7265SOL    HW223237   3.973   7.509  10.177  2.7740 -0.5128  0.2312
 7266SOL     OW23238   3.016   7.789  10.672 -0.1467 -0.2396 -0.2531
 7266SOL    HW123239   2.939   7.800  10.615 -0.9122  1.5506  1.0335
 7266SOL    HW223240   3.080   7.850  10.636 -0.9203  1.5125  1.1827
 7267SOL     OW23241   2.646   2.451  10.174 -0.3987  0.1546  0.0517
 7267SOL    HW123242   2.613   2.495  10.096 -0.5674  0.2365  0.1697
 7267SOL    HW223243   2.731   2.417  10.148  0.1004  1.2396  0.1983
 7268SOL     OW23244   1.095   2.132  10.385 -0.5042 -0.1214 -0.2726
 7268SOL    HW123245   1.164   2.177  10.434 -0.3028 -1.5722  0.8554
 7268SOL    HW223246   1.093   2.176  10.301  0.7825  0.9264  0.2049
 7269SOL     OW23247   2.752   1.922  10.634 -0.3213 -0.4465  0.6569
 7269SOL    HW123248   2.774   1.840  10.680  1.3018  0.2596  1.1953
 7269SOL    HW223249   2.742   1.896  10.543 -2.8279 -1.7395  1.1923
 7270SOL     OW23250   1.829   7.134  11.268 -0.1624 -0.2566 -0.6289
 7270SOL    HW123251   1.815   7.202  11.333 -0.9813 -0.7277 -0.2890
 7270SOL    HW223252   1.816   7.178  11.184 -0.2946  0.0913 -0.4287
 7271SOL     OW23253   1.729   7.063  10.957 -0.1903  0.1123 -0.3260
 7271SOL    HW123254   1.702   7.108  11.037  0.6284  0.6550 -0.3486
 7271SOL    HW223255   1.717   6.970  10.977  3.1118 -0.0380  1.7019
 7272SOL     OW23256   2.089   0.111   9.994 -0.8813  0.5717 -0.4315
 7272SOL    HW123257   2.096   0.027  10.039 -0.2305  1.0340  0.3466
 7272SOL    HW223258   2.006   0.105   9.946 -1.2432 -0.2021  0.2559
 7273SOL     OW23259   4.748   7.963  10.304 -0.3017  0.0139  0.7207
 7273SOL    HW123260   4.814   8.022  10.266 -0.2825 -1.4683 -1.7746
 7273SOL    HW223261   4.667   7.985  10.258 -0.5193 -1.1644  0.5086
 7274SOL     OW23262   2.616   0.875   9.545 -0.0567  0.3589  0.1773
 7274SOL    HW123263   2.620   0.865   9.640 -0.5732 -0.2340  0.1375
 7274SOL    HW223264   2.555   0.948   9.531 -0.1752  0.2805  0.2897
 7275SOL     OW23265   3.915   0.727  11.181  0.1031  0.3162  0.8548
 7275SOL    HW123266   3.951   0.728  11.093 -0.4211  3.1830  0.5967
 7275SOL    HW223267   3.940   0.641  11.216  0.7415 -0.6918 -1.8662
 7276SOL     OW23268   7.997   0.745  10.545  0.1780 -0.4385 -0.0606
 7276SOL    HW123269   8.064   0.715  10.607  1.4929 -2.5360 -2.2935
 7276SOL    HW223270   8.031   0.828  10.512  0.3312 -0.1698  0.7628
 7277SOL     OW23271   4.995   1.472  10.702  0.0233 -0.2127 -0.9370
 7277SOL    HW123272   5.019   1.515  10.620 -1.5257 -0.8057 -1.7517
 7277SOL    HW223273   4.921   1.524  10.735  0.3129 -0.2748 -0.1821
 7278SOL     OW23274   4.002   1.682  10.604  0.2401 -0.2243 -0.1517
 7278SOL    HW123275   4.028   1.590  10.596  1.3267  0.1508 -1.4347
 7278SOL    HW223276   3.929   1.691  10.543 -1.8139 -0.8479  2.0838
 7279SOL     OW23277   3.433   7.859   9.563  0.0184  0.2085  0.1816
 7279SOL    HW123278   3.409   7.768   9.543  2.0171 -0.5908  1.1441
 7279SOL    HW223279   3.441   7.901   9.478  0.5034 -0.9501 -0.3688
 7280SOL     OW23280   3.127   0.389  11.323 -0.4052  0.5093 -0.3118
 7280SOL    HW123281   3.166   0.306  11.297  2.8196  2.4105 -2.2198
 7280SOL    HW223282   3.078   0.417  11.245 -1.8769  0.2664  0.4879
 7281SOL     OW23283   3.609   1.988   9.725 -0.1636  0.2545 -0.3321
 7281SOL    HW123284   3.604   2.025   9.813  0.5436  1.4276 -0.7585
 7281SOL    HW223285   3.517   1.978   9.699 -0.3820 -0.2020  0.5620
 7282SOL     OW23286   4.331   1.417   9.370 -0.2610  0.0023  0.2229
 7282SOL    HW123287   4.332   1.366   9.288  1.0327 -1.1167  0.8896
 7282SOL    HW223288   4.373   1.500   9.346  0.2643 -0.3806 -0.2366
 7283SOL     OW23289   2.785   2.199  11.218 -0.5676  0.2357 -0.0893
 7283SOL    HW123290   2.825   2.234  11.138 -0.4515 -1.2137 -0.6942
 7283SOL    HW223291   2.693   2.188  11.196 -0.3566 -1.1445 -0.4217
 7284SOL     OW23292   0.915   2.827   8.899 -0.2019  0.4726 -0.7772
 7284SOL    HW123293   1.008   2.846   8.901  0.0100 -0.2036 -2.2862
 7284SOL    HW223294   0.908   2.746   8.847 -1.5102 -0.3061  0.5419
 7285SOL     OW23295   3.279   7.374  10.477 -0.1573  0.0217 -0.1644
 7285SOL    HW123296   3.373   7.354  10.477  0.1575  1.4378 -0.0491
 7285SOL    HW223297   3.269   7.447  10.416 -1.2776 -0.4699 -0.6067
 7286SOL     OW23298   6.493   1.225   8.447 -0.3502 -0.3341 -0.4926
 7286SOL    HW123299   6.548   1.264   8.515 -0.4329  0.2576 -0.7541
 7286SOL    HW223300   6.450   1.152   8.489 -1.4515  0.8354  0.4962
 7287SOL     OW23301   3.924   1.602   8.682  0.1508 -0.6422 -0.3675
 7287SOL    HW123302   3.955   1.517   8.715  1.5123 -0.3621 -0.8621
 7287SOL    HW223303   3.984   1.666   8.719 -0.1580 -0.0151 -0.9309
 7288SOL     OW23304   3.344   1.493   8.992  0.2007 -0.0909  0.4885
 7288SOL    HW123305   3.418   1.504   9.052  1.2011 -1.0511 -0.4995
 7288SOL    HW223306   3.311   1.405   9.011  0.2563 -0.2350 -0.0679
 7289SOL     OW23307   4.490   0.551   8.555  0.3924  1.0469  0.3570
 7289SOL    HW123308   4.556   0.484   8.573 -0.2870  0.3631  0.3621
 7289SOL    HW223309   4.407   0.510   8.582 -0.2713  1.1496 -1.4333
 7290SOL     OW23310   2.873   7.360  11.192  0.8068 -0.2907 -0.0925
 7290SOL    HW123311   2.962   7.351  11.226  1.8657  1.6656 -2.0940
 7290SOL    HW223312   2.841   7.441  11.231 -0.2335 -1.1064  0.8017
 7291SOL     OW23313   3.996   2.652   9.351 -0.8021 -0.2298  0.1541
 7291SOL    HW123314   3.901   2.643   9.359 -0.9422  0.5818 -0.5436
 7291SOL    HW223315   4.025   2.673   9.440 -1.2438 -0.6677  0.4112
 7292SOL     OW23316   4.209   2.342  11.261  0.5244  0.6673 -0.1013
 7292SOL    HW123317   4.252   2.285  11.325 -1.3481  0.0487  0.7102
 7292SOL    HW223318   4.205   2.290  11.181 -1.9985 -0.8368  0.8930
 7293SOL     OW23319   3.903   7.096   9.672  0.3241  0.1294 -0.3497
 7293SOL    HW123320   3.943   7.165   9.620  0.4864  1.1209  1.0412
 7293SOL    HW223321   3.941   7.106   9.759 -1.0101 -0.5465  0.3503
 7294SOL     OW23322   3.194   0.485  10.189 -0.2351 -0.4944  0.1494
 7294SOL    HW123323   3.104   0.475  10.220 -0.3176 -2.0349 -0.4992
 7294SOL    HW223324   3.210   0.407  10.135  2.6057 -2.1369  3.0105
 7295SOL     OW23325   4.521   3.019   9.828 -0.0500  0.2594  0.0179
 7295SOL    HW123326   4.601   2.994   9.875  0.2402 -0.2263 -0.7318
 7295SOL    HW223327   4.542   3.103   9.788 -0.0760  0.3547  0.2027
 7296SOL     OW23328   3.681   7.225  11.274  0.4702 -0.1319  0.4899
 7296SOL    HW123329   3.752   7.192  11.330  0.2082 -0.5918  0.5576
 7296SOL    HW223330   3.606   7.170  11.296  0.5203 -0.7228 -0.7333
 7297SOL     OW23331   4.118   7.985  10.572  0.0228  0.2823  0.3257
 7297SOL    HW123332   4.186   7.938  10.621  0.7404  1.1134  0.1676
 7297SOL    HW223333   4.131   7.958  10.482 -0.9522 -0.8397  0.5125
 7298SOL     OW23334   4.273   1.779   9.798  0.4240 -0.6217  0.1711
 7298SOL    HW123335   4.246   1.699   9.754 -0.0654  0.2962 -1.2277
 7298SOL    HW223336   4.358   1.801   9.759  0.0870  0.0825 -0.1859
 7299SOL     OW23337   2.653   1.757  10.078 -0.0502 -0.2419 -0.2136
 7299SOL    HW123338   2.721   1.733  10.016 -0.3563 -0.7479 -0.3613
 7299SOL    HW223339   2.646   1.852  10.071 -0.1785 -0.3049 -1.0563
 7300SOL     OW23340   3.494   0.535   8.877  0.2136  0.3351 -0.5426
 7300SOL    HW123341   3.413   0.485   8.892 -0.3461  0.9073 -1.5937
 7300SOL    HW223342   3.509   0.529   8.783  2.0498 -0.7243 -0.2437
 7301SOL     OW23343   4.311   0.134  10.380 -0.0550 -0.1963  0.2743
 7301SOL    HW123344   4.284   0.226  10.381 -1.5641 -0.6161  1.4997
 7301SOL    HW223345   4.337   0.116  10.471 -0.1042 -1.0840  0.1211
 7302SOL     OW23346   3.237   0.119   9.860 -0.3608  0.5309  0.2280
 7302SOL    HW123347   3.194   0.157   9.936  1.7377  3.4538  0.1320
 7302SOL    HW223348   3.203   0.170   9.786 -0.4719 -0.5540 -0.4926
 7303SOL     OW23349   2.342   1.259  10.553 -0.0665 -0.3159  0.2449
 7303SOL    HW123350   2.265   1.315  10.559 -0.0457 -0.3894  1.5234
 7303SOL    HW223351   2.357   1.230  10.643  1.5699 -0.1336  0.0674
 7304SOL     OW23352   3.381   0.202  11.282 -0.1950 -0.0383  0.2156
 7304SOL    HW123353   3.395   0.295  11.300  0.1268 -0.0094 -0.1620
 7304SOL    HW223354   3.440   0.183  11.209 -0.1304 -0.5846  0.4107
 7305SOL     OW23355   3.089   1.342  10.380  0.1973 -0.2040 -0.0139
 7305SOL    HW123356   3.030   1.407  10.341  0.8807 -0.3563 -1.3645
 7305SOL    HW223357   3.068   1.260  10.335  0.5485 -0.5385  0.4193
 7306SOL     OW23358   2.792   1.289  11.770  0.5468 -0.1091  0.1741
 7306SOL    HW123359   2.851   1.299  11.845  1.5500 -2.0601 -0.2966
 7306SOL    HW223360   2.717   1.345  11.792  1.7204  1.0098  1.6404
 7307SOL     OW23361   1.566   0.582  10.166 -0.1183  0.1772  0.3833
 7307SOL    HW123362   1.508   0.635  10.113  0.2403 -0.5851 -0.8036
 7307SOL    HW223363   1.627   0.644  10.205 -0.9738  0.8467  0.6855
 7308SOL     OW23364   2.941   0.872   9.651  0.7157  0.2332  0.4335
 7308SOL    HW123365   2.915   0.943   9.593 -0.7264 -1.5679 -1.2959
 7308SOL    HW223366   2.864   0.855   9.705 -0.0074 -1.6388 -1.0231
 7309SOL     OW23367   3.625   7.260  10.227 -0.7912  0.2213  0.5278
 7309SOL    HW123368   3.545   7.229  10.184  0.1887 -2.8273  0.6949
 7309SOL    HW223369   3.660   7.326  10.166 -3.2930  1.5653  0.4094
 7310SOL     OW23370   4.103   7.111   9.882  0.0096 -0.0259 -0.0753
 7310SOL    HW123371   4.133   7.021   9.872  1.4675  0.3812  0.4147
 7310SOL    HW223372   4.175   7.165   9.847  0.8266  1.0564  2.9301
 7311SOL     OW23373   4.100   1.784  10.012 -0.3091  0.3796 -0.5641
 7311SOL    HW123374   4.031   1.848   9.995  0.7371  1.4987 -0.7791
 7311SOL    HW223375   4.163   1.797   9.940 -0.5940 -1.6733 -1.2446
 7312SOL     OW23376   3.208   0.314  10.995 -0.7857  0.9655 -0.1414
 7312SOL    HW123377   3.165   0.236  11.032  1.4626 -0.8072 -1.0076
 7312SOL    HW223378   3.209   0.298  10.901  1.4502  1.0121 -0.1821
 7313SOL     OW23379   3.338   1.092  10.529 -0.6077  0.1609 -0.5866
 7313SOL    HW123380   3.253   1.084  10.486  0.1257 -2.1573 -1.7470
 7313SOL    HW223381   3.346   1.013  10.582  1.2800 -0.2572 -1.4123
 7314SOL     OW23382   2.093   0.567  11.078 -0.4789 -0.2521  0.3130
 7314SOL    HW123383   2.177   0.527  11.101  0.5007  0.6272 -1.5000
 7314SOL    HW223384   2.037   0.493  11.056  0.5855 -0.7816 -0.7645
 7315SOL     OW23385   2.923   0.348  10.854  0.0566  0.6167 -0.2797
 7315SOL    HW123386   3.008   0.315  10.824  0.8061  1.7060  0.5750
 7315SOL    HW223387   2.878   0.270  10.888  0.9002  0.0996 -0.3084
 7316SOL     OW23388   1.250   0.371  11.083 -0.0615  0.7025  0.8103
 7316SOL    HW123389   1.316   0.302  11.091 -1.4263 -0.6946  0.4772
 7316SOL    HW223390   1.215   0.383  11.171 -0.6368  0.1158  0.6687
 7317SOL     OW23391   3.817   1.299   9.903  0.2431  0.4695 -0.1668
 7317SOL    HW123392   3.756   1.367   9.930 -4.0324 -2.8465 -0.3992
 7317SOL    HW223393   3.882   1.295   9.973 -1.5578  2.2225  1.7238
 7318SOL     OW23394   3.633   7.557  10.243 -0.1435  0.3204  0.5414
 7318SOL    HW123395   3.689   7.536  10.167  0.3319 -0.5878  1.1201
 7318SOL    HW223396   3.549   7.581  10.204  0.1168 -0.0393 -0.2851
 7319SOL     OW23397   3.704   0.113  10.144 -0.2620  0.5045 -0.1883
 7319SOL    HW123398   3.682   0.204  10.127  1.3012  1.2724  1.5187
 7319SOL    HW223399   3.787   0.099  10.100  1.0099  0.8616  1.9578
 7320SOL     OW23400   4.182   7.367  10.761  0.0336  0.5313  0.4079
 7320SOL    HW123401   4.270   7.370  10.725 -0.3667 -1.8893 -1.0301
 7320SOL    HW223402   4.188   7.305  10.834 -0.3275  0.9131  0.7664
 7321SOL     OW23403   3.852   0.873  11.371 -0.0307  0.3249  0.5757
 7321SOL    HW123404   3.847   0.841  11.281 -0.4524  0.8007  0.4253
 7321SOL    HW223405   3.853   0.794  11.425 -0.3062  0.0463  0.1776
 7322SOL     OW23406   1.800   1.148   8.625  0.2202 -0.2765  0.1871
 7322SOL    HW123407   1.842   1.106   8.550 -1.3571  0.6872 -1.3202
 7322SOL    HW223408   1.862   1.216   8.652 -0.9298  2.4570 -3.2434
 7323SOL     OW23409   2.964   1.255  10.603  0.6346  0.1961  0.9928
 7323SOL    HW123410   3.005   1.294  10.526  0.7975  1.6827  1.7953
 7323SOL    HW223411   2.875   1.234  10.575  1.5353 -2.1315 -0.4709
 7324SOL     OW23412   3.767   0.417  11.046  0.2942 -0.3117 -0.2077
 7324SOL    HW123413   3.819   0.426  11.126  0.5614  0.6047 -0.4770
 7324SOL    HW223414   3.828   0.436  10.976  0.1571 -1.4754 -0.6752
 7325SOL     OW23415   2.810   1.030   8.728  0.2182 -0.2297 -0.1460
 7325SOL    HW123416   2.822   1.107   8.784 -1.4451  0.4335 -0.6234
 7325SOL    HW223417   2.824   0.956   8.786  2.0896  0.4074  0.2783
 7326SOL     OW23418   3.482   3.241   9.080 -0.2752  0.2163 -0.7939
 7326SOL    HW123419   3.541   3.216   9.008 -0.5691 -2.7156 -0.1673
 7326SOL    HW223420   3.527   3.212   9.159 -2.5289 -2.4214 -0.3104
 7327SOL     OW23421   2.943   1.518  10.235  0.0340 -0.6059 -0.0511
 7327SOL    HW123422   2.971   1.608  10.220 -2.5620  0.5453  1.4149
 7327SOL    HW223423   2.932   1.482  10.146  2.5114 -0.0357 -0.6559
 7328SOL     OW23424   3.604   2.478  11.438  0.0150 -0.1474  0.7931
 7328SOL    HW123425   3.573   2.506  11.352 -2.5352 -0.3394  1.5472
 7328SOL    HW223426   3.620   2.384  11.429 -1.5726 -0.4548  0.7945
 7329SOL     OW23427   2.692   1.280  11.071 -0.2749 -0.3410 -0.2738
 7329SOL    HW123428   2.746   1.357  11.051  0.2302 -0.5090  0.3925
 7329SOL    HW223429   2.647   1.260  10.989  0.8536 -0.3195 -0.9265
 7330SOL     OW23430   3.155   5.566  10.099  0.0241  0.0344 -0.0048
 7330SOL    HW123431   3.074   5.559  10.048 -0.1930  1.9347 -0.0006
 7330SOL    HW223432   3.207   5.632  10.052  1.6506 -1.2463 -0.0816
 7331SOL     OW23433   3.153   1.018   8.292 -0.0158 -0.6578 -0.3241
 7331SOL    HW123434   3.202   1.018   8.210  0.9736  0.7419  0.2221
 7331SOL    HW223435   3.204   0.962   8.351 -1.1588 -2.3299 -0.8701
 7332SOL     OW23436   5.978   0.633  11.398  0.0654  0.2091 -0.1754
 7332SOL    HW123437   6.069   0.601  11.400 -0.3965 -1.3669 -1.5536
 7332SOL    HW223438   5.979   0.702  11.332  0.5024  1.1259  0.7637
 7333SOL     OW23439   3.715   0.850  10.851 -0.0895  0.2759  0.2439
 7333SOL    HW123440   3.806   0.830  10.876 -0.0254 -0.5075 -0.5953
 7333SOL    HW223441   3.704   0.810  10.765 -0.4956  2.3999 -0.7675
 7334SOL     OW23442   1.827   3.102  12.323  0.0586 -0.2226  0.6796
 7334SOL    HW123443   1.759   3.066  12.266 -0.3199  0.5090  0.6624
 7334SOL    HW223444   1.845   3.033  12.386 -0.6564 -0.4390  0.6487
 7335SOL     OW23445   2.538   1.172  10.039  0.1542 -0.2154  0.4075
 7335SOL    HW123446   2.608   1.180  10.105  1.2325  3.3941 -0.9114
 7335SOL    HW223447   2.462   1.212  10.080 -0.3639 -1.5623  0.8095
 7336SOL     OW23448   2.668   7.917   8.777 -0.2042  0.2928 -0.0341
 7336SOL    HW123449   2.699   7.912   8.686 -1.4513 -0.5132 -0.4447
 7336SOL    HW223450   2.731   7.864   8.826  0.6161  0.9300 -0.3803
 7337SOL     OW23451   2.976   1.639   8.833  0.4678  0.1681  0.3321
 7337SOL    HW123452   2.954   1.724   8.873 -0.1181 -0.1193  0.6323
 7337SOL    HW223453   3.057   1.656   8.784  0.8418  0.6879  1.1038
 7338SOL     OW23454   1.608   0.770   9.286 -0.3188  0.2146 -0.0728
 7338SOL    HW123455   1.690   0.780   9.237 -0.8667  2.6806 -0.5988
 7338SOL    HW223456   1.620   0.689   9.335  1.8131 -0.3069 -1.3074
 7339SOL     OW23457   2.621   7.721   9.028 -0.9405 -0.5563  0.0152
 7339SOL    HW123458   2.567   7.758   8.959 -0.0002 -1.0164 -1.0008
 7339SOL    HW223459   2.702   7.773   9.027 -1.3919  0.2499  1.6425
 7340SOL     OW23460   3.813   0.923   9.639  0.0448  0.1730  0.5842
 7340SOL    HW123461   3.904   0.894   9.631  0.6810  1.8647  1.3013
 7340SOL    HW223462   3.762   0.846   9.613  1.6664 -0.5460 -0.6830
 7341SOL     OW23463   3.111   1.298  11.220 -0.4308  0.1272 -0.1457
 7341SOL    HW123464   3.028   1.309  11.173 -1.2192  0.0465  1.1862
 7341SOL    HW223465   3.123   1.380  11.267  0.1574  0.0561 -0.1570
 7342SOL     OW23466   1.951   3.492   9.304  0.1308  0.0995  0.1388
 7342SOL    HW123467   2.045   3.496   9.290 -0.0941  2.3053 -1.3620
 7342SOL    HW223468   1.933   3.565   9.364 -0.6661 -0.0582  0.1008
 7343SOL     OW23469   1.973   7.514  10.756  0.2672 -0.0383  0.2489
 7343SOL    HW123470   2.011   7.587  10.806  0.7892 -0.2061  0.1044
 7343SOL    HW223471   1.881   7.538  10.744  0.2948  0.3144  0.7189
 7344SOL     OW23472   0.833   0.289  10.401  0.2831 -0.2198 -0.2145
 7344SOL    HW123473   0.837   0.305  10.495  0.2568 -0.0416 -0.2444
 7344SOL    HW223474   0.871   0.202  10.390  0.8310  0.0009 -0.0997
 7345SOL     OW23475   0.969   0.638  10.084 -0.2915 -0.1797  0.7139
 7345SOL    HW123476   1.056   0.629  10.122 -0.5374  0.5274  1.4862
 7345SOL    HW223477   0.961   0.731  10.064 -0.3365 -0.4716 -0.7004
 7346SOL     OW23478   2.040   1.797  10.843 -0.3985  0.5620 -0.5913
 7346SOL    HW123479   1.952   1.833  10.851 -0.2626  1.0862 -1.3071
 7346SOL    HW223480   2.089   1.836  10.916 -0.7006  0.4550 -0.3330
 7347SOL     OW23481   2.766   2.355  11.708  0.1346  0.3573 -0.0909
 7347SOL    HW123482   2.717   2.419  11.656  0.5837  0.7187 -0.0804
 7347SOL    HW223483   2.760   2.389  11.798 -0.6698 -0.2829  0.1160
 7348SOL     OW23484   1.460   1.161  12.171  0.4980 -0.1077  0.6804
 7348SOL    HW123485   1.411   1.243  12.180  0.1687 -0.4050  1.6244
 7348SOL    HW223486   1.473   1.130  12.260  2.2773 -0.1340  0.4433
 7349SOL     OW23487   2.404   7.600  11.054 -0.3161  1.3772  0.6904
 7349SOL    HW123488   2.465   7.550  11.000 -0.0236  1.8638  0.5635
 7349SOL    HW223489   2.337   7.630  10.993 -0.5543  1.0492  0.7871
 7350SOL     OW23490   0.909   1.219  12.401 -0.3113  0.1614 -0.1785
 7350SOL    HW123491   0.994   1.262  12.400  0.3371 -1.0159  1.0908
 7350SOL    HW223492   0.859   1.265  12.468 -0.5071  0.5225 -0.5669
 7351SOL     OW23493   1.885   7.948   0.131 -0.1695 -0.3248 -0.1770
 7351SOL    HW123494   1.898   8.022   0.190  0.1840 -0.3493 -0.2231
 7351SOL    HW223495   1.894   7.871   0.187 -3.5135 -0.3440  0.5157
 7352SOL     OW23496   2.639   2.355  12.222  0.1338  0.2736 -0.2302
 7352SOL    HW123497   2.577   2.401  12.277  0.2890  1.2457 -0.8464
 7352SOL    HW223498   2.718   2.410  12.222  1.4999 -1.5500  1.5667
 7353SOL     OW23499   2.436   6.245  11.255 -0.0667 -0.1427  0.1226
 7353SOL    HW123500   2.353   6.282  11.286  0.0247 -0.2267  0.4772
 7353SOL    HW223501   2.452   6.171  11.314 -0.7250 -1.3521 -1.1655
 7354SOL     OW23502   2.632   2.137  10.340 -0.2312  0.0344 -0.2796
 7354SOL    HW123503   2.696   2.166  10.405 -0.7521 -0.8039  0.6345
 7354SOL    HW223504   2.682   2.083  10.279  0.4489  1.5885 -1.1544
 7355SOL     OW23505   2.053   0.250  10.953  0.2185 -0.1217  0.2587
 7355SOL    HW123506   2.047   0.293  10.867  0.6168  2.6609  1.4872
 7355SOL    HW223507   2.147   0.236  10.966  0.5347  2.5525  1.5085
 7356SOL     OW23508   3.106   2.258  10.734  0.2033  0.2808  0.6534
 7356SOL    HW123509   3.194   2.296  10.735  0.6284 -0.2178 -3.2639
 7356SOL    HW223510   3.048   2.332  10.752  1.3162  0.8960  1.8884
 7357SOL     OW23511   2.401   7.145  10.061  0.5217  0.3264 -0.3670
 7357SOL    HW123512   2.396   7.109   9.972  0.7687 -1.1478  0.1843
 7357SOL    HW223513   2.345   7.087  10.113  1.6899  0.1586  0.7335
 7358SOL     OW23514   1.446   2.356   9.144 -0.3699 -0.3230 -0.0476
 7358SOL    HW123515   1.410   2.426   9.089 -1.6666 -0.9544 -0.0244
 7358SOL    HW223516   1.538   2.380   9.155 -0.4971  0.7273 -1.0619
 7359SOL     OW23517   2.765   2.422   0.475  0.0334 -0.1008  0.1566
 7359SOL    HW123518   2.823   2.375   0.415 -0.5078  0.3022 -0.6919
 7359SOL    HW223519   2.745   2.504   0.430  0.4074  0.6514  1.3197
 7360SOL     OW23520   1.118   0.703   0.094 -0.6186  0.2722 -0.2227
 7360SOL    HW123521   1.199   0.723   0.046  0.3531 -0.2524  1.1376
 7360SOL    HW223522   1.068   0.647   0.035  1.6357 -2.4207  0.2174
 7361SOL     OW23523   2.507   0.412   0.545 -0.0105 -0.1217  0.2598
 7361SOL    HW123524   2.519   0.502   0.515 -2.1511 -0.4500 -1.8487
 7361SOL    HW223525   2.542   0.358   0.475  0.0591 -0.9478  0.9108
 7362SOL     OW23526   2.731   2.122  12.362 -0.1977  0.4753  0.3844
 7362SOL    HW123527   2.703   2.195  12.309 -0.3710  0.9934  1.1696
 7362SOL    HW223528   2.650   2.084  12.397 -0.0269  2.1232  2.8494
 7363SOL     OW23529   1.133   2.678   1.101 -0.1033 -0.3008  0.6022
 7363SOL    HW123530   1.189   2.756   1.106  0.3746 -0.3757 -2.1614
 7363SOL    HW223531   1.068   2.699   1.035 -2.5389 -0.7977  2.7052
 7364SOL     OW23532   0.615   0.796  10.690 -0.7351 -0.2911 -0.3496
 7364SOL    HW123533   0.651   0.776  10.603 -1.6402 -1.1353 -0.5440
 7364SOL    HW223534   0.560   0.873  10.674 -3.0845 -2.0125 -1.1475
 7365SOL     OW23535   2.071   0.112   0.786 -0.1827 -0.4803 -0.1125
 7365SOL    HW123536   2.013   0.036   0.798 -3.0136  1.2923 -1.4242
 7365SOL    HW223537   2.124   0.090   0.710 -0.2959 -1.5045  0.0853
 7366SOL     OW23538   2.052   1.113   0.661 -0.6514 -0.1940  0.2453
 7366SOL    HW123539   2.003   1.033   0.643  1.2082 -1.8216  1.9210
 7366SOL    HW223540   2.125   1.111   0.599  1.4038 -1.7848  2.5230
 7367SOL     OW23541   3.677   0.220  11.900  0.3587  0.0525  0.4771
 7367SOL    HW123542   3.610   0.164  11.939 -1.0769  1.6051  0.3689
 7367SOL    HW223543   3.677   0.195  11.807 -1.7687  1.5519  0.0006
 7368SOL     OW23544   2.460   2.069  11.718  0.0678  0.6118  0.2028
 7368SOL    HW123545   2.365   2.063  11.728  0.2769 -0.6848  1.9390
 7368SOL    HW223546   2.484   2.152  11.759 -0.5575  2.6315 -3.1550
 7369SOL     OW23547   1.993   1.722  11.163 -0.5423 -0.6909  0.3822
 7369SOL    HW123548   1.930   1.792  11.184 -0.1249 -0.6956  1.6811
 7369SOL    HW223549   1.965   1.648  11.217  0.2148 -0.8868  0.5063
 7370SOL     OW23550   1.885   7.764  11.885 -0.1013  0.1900 -0.0512
 7370SOL    HW123551   1.800   7.744  11.922  0.5177 -1.7179  0.4722
 7370SOL    HW223552   1.915   7.680  11.848  2.6850  0.0468  2.1893
 7371SOL     OW23553   0.989   0.407  10.739  0.4323 -0.6784  0.7377
 7371SOL    HW123554   0.895   0.413  10.724  0.4057 -0.5612  0.9410
 7371SOL    HW223555   1.026   0.383  10.654  0.1141 -1.7801  0.9009
 7372SOL     OW23556   3.521   0.739  11.389  0.0685 -0.2461  0.1964
 7372SOL    HW123557   3.512   0.762  11.297  1.2001 -0.9506 -0.1013
 7372SOL    HW223558   3.476   0.655  11.397 -1.8182  0.7563  0.7461
 7373SOL     OW23559   1.383   0.758  10.020 -0.3026  0.7174 -0.3265
 7373SOL    HW123560   1.424   0.834  10.060  0.8486  0.4655 -0.9962
 7373SOL    HW223561   1.290   0.781  10.014 -0.6193  0.6530  2.7278
 7374SOL     OW23562   0.815   7.664   1.624 -0.1891 -0.3973 -0.5528
 7374SOL    HW123563   0.754   7.738   1.628 -0.5313 -0.7228  0.7775
 7374SOL    HW223564   0.765   7.594   1.582  0.5498  0.4679 -3.0077
 7375SOL     OW23565   1.783   7.759  10.352 -0.2528 -0.7872 -0.2554
 7375SOL    HW123566   1.769   7.738  10.260 -1.2714 -2.1213  0.1779
 7375SOL    HW223567   1.763   7.678  10.399 -1.0518  0.2215  1.2407
 7376SOL     OW23568   3.039   0.523  11.752 -0.1324 -0.1695  0.3450
 7376SOL    HW123569   3.060   0.616  11.753  0.1128 -0.2238  0.6135
 7376SOL    HW223570   2.965   0.515  11.692 -1.9521  0.5722  2.3788
 7377SOL     OW23571   2.758   2.283  10.908 -0.0825  0.1098 -0.0077
 7377SOL    HW123572   2.738   2.191  10.888 -1.0189 -0.2570  2.2629
 7377SOL    HW223573   2.852   2.283  10.928  0.2456 -0.0380 -1.4793
 7378SOL     OW23574   2.476   0.017   0.526 -0.1999 -0.1498 -0.3848
 7378SOL    HW123575   2.495   0.103   0.488 -0.9519  0.9992  1.6887
 7378SOL    HW223576   2.560  -0.028   0.526 -0.0535 -0.0349 -2.8383
 7379SOL     OW23577   3.428   0.910   0.462  0.6817 -0.2193  0.2859
 7379SOL    HW123578   3.519   0.936   0.446  0.2322  0.8714 -0.6482
 7379SOL    HW223579   3.405   0.953   0.545  0.9072 -0.1886  0.3331
 7380SOL     OW23580   2.800   0.629  11.942  0.0505  0.4832  0.5502
 7380SOL    HW123581   2.833   0.718  11.945  0.1421  0.5357 -0.9891
 7380SOL    HW223582   2.706   0.638  11.924  0.2375  0.2891 -0.6341
 7381SOL     OW23583   2.877   1.601   0.347  0.0814 -1.0710  0.1999
 7381SOL    HW123584   2.871   1.696   0.345  0.8795 -1.0162 -1.2620
 7381SOL    HW223585   2.786   1.572   0.358 -0.3465 -0.1354 -0.6414
 7382SOL     OW23586   3.398   0.490  11.412  0.3899  0.2598 -0.1085
 7382SOL    HW123587   3.319   0.477  11.360  0.8900 -0.9560 -0.5924
 7382SOL    HW223588   3.368   0.495  11.503 -0.3009  0.4937 -0.3501
 7383SOL     OW23589   4.405   1.423   0.164 -0.7523 -0.1487  0.2558
 7383SOL    HW123590   4.427   1.420   0.071 -0.6136 -0.9952  0.3042
 7383SOL    HW223591   4.339   1.492   0.172 -0.4925  0.1858 -0.4044
 7384SOL     OW23592   2.005   2.130   0.655  0.2032 -0.0384 -0.1703
 7384SOL    HW123593   1.915   2.157   0.670  0.4799  1.4582 -1.0607
 7384SOL    HW223594   2.047   2.206   0.614  1.8492 -0.7275  0.1579
 7385SOL     OW23595   2.822   2.476  11.327 -0.0988 -0.6504 -0.0978
 7385SOL    HW123596   2.791   2.391  11.297  1.8095 -1.5818  0.4442
 7385SOL    HW223597   2.877   2.508  11.256 -0.4108 -0.0677 -0.0858
 7386SOL     OW23598   0.766   1.636  12.115  0.4545  0.0031 -0.5465
 7386SOL    HW123599   0.784   1.721  12.074 -0.0126 -0.3874 -1.5931
 7386SOL    HW223600   0.674   1.640  12.139  0.3481 -0.3179 -0.8875
 7387SOL     OW23601   2.827   4.607  10.564  0.0366 -0.2742 -0.3582
 7387SOL    HW123602   2.761   4.670  10.533 -0.0617 -0.3720 -0.3478
 7387SOL    HW223603   2.897   4.662  10.597 -0.8323 -0.1346  1.3603
 7388SOL     OW23604   2.700   1.690  11.993  0.0971 -0.0942  0.9875
 7388SOL    HW123605   2.683   1.784  11.993  0.4753 -0.0194  0.5969
 7388SOL    HW223606   2.721   1.669  12.084 -1.1150 -0.0196  1.3015
 7389SOL     OW23607   2.712   0.850  11.494  0.1057 -0.8895  0.2967
 7389SOL    HW123608   2.667   0.922  11.539 -1.5381 -1.7169  0.0441
 7389SOL    HW223609   2.661   0.772  11.516  1.9727 -2.0499  0.7462
 7390SOL     OW23610   2.911   0.831  11.085 -0.1411 -0.4522 -0.1452
 7390SOL    HW123611   2.984   0.839  11.023 -0.6041 -2.0332 -0.9524
 7390SOL    HW223612   2.834   0.819  11.030 -0.9942  0.8456  0.7091
 7391SOL     OW23613   2.521   7.354  11.206  0.2419  0.5491  0.1106
 7391SOL    HW123614   2.435   7.397  11.212 -0.2336 -0.2425 -0.6625
 7391SOL    HW223615   2.511   7.273  11.257  0.7916  0.8407  0.6883
 7392SOL     OW23616   2.824   6.983  12.051 -0.0505  0.1524 -0.0427
 7392SOL    HW123617   2.752   7.018  12.103 -0.8205 -1.0753 -0.2590
 7392SOL    HW223618   2.889   7.054  12.050 -1.2621  1.3075  0.1024
 7393SOL     OW23619   2.265   0.985  12.151  0.3165  0.3734 -0.2183
 7393SOL    HW123620   2.246   1.029  12.068  0.4342 -1.5062 -1.3043
 7393SOL    HW223621   2.180   0.958  12.185  0.3928 -0.7537 -0.8648
 7394SOL     OW23622   2.254   2.955  10.317  0.1909  0.3573  0.4183
 7394SOL    HW123623   2.202   2.888  10.273  2.7120  0.1843 -2.6651
 7394SOL    HW223624   2.341   2.947  10.278  0.7067  5.2967 -0.0308
 7395SOL     OW23625   0.984   7.936  11.719  0.1355 -0.8622 -0.2118
 7395SOL    HW123626   1.050   7.867  11.713  0.3095 -0.8783  1.3812
 7395SOL    HW223627   1.014   7.992  11.791 -0.8968 -0.1090 -0.3383
 7396SOL     OW23628   1.756   7.246  12.287  0.0162  0.2890  0.3817
 7396SOL    HW123629   1.806   7.325  12.265 -0.3641  0.9224  1.6585
 7396SOL    HW223630   1.733   7.258  12.379 -1.0603 -0.7634  0.2718
 7397SOL     OW23631   1.396   2.883  11.023 -0.0311  0.2395  0.0670
 7397SOL    HW123632   1.456   2.908  11.092  0.8597 -0.8839 -0.2722
 7397SOL    HW223633   1.355   2.801  11.053 -0.3491  0.2499 -0.3111
 7398SOL     OW23634   1.328   1.860   9.714  0.2023 -0.1634  0.4382
 7398SOL    HW123635   1.343   1.852   9.620 -1.7834 -0.3898  0.1002
 7398SOL    HW223636   1.372   1.942   9.738  0.7287 -0.0988 -0.6738
 7399SOL     OW23637   2.615   1.304  12.379  0.2685 -0.0498 -0.0767
 7399SOL    HW123638   2.639   1.396  12.368 -2.2547  0.8740  1.4586
 7399SOL    HW223639   2.531   1.296  12.334  1.1716 -2.0712 -1.5668
 7400SOL     OW23640   3.302   1.119  10.843  0.1068  0.0235 -0.0587
 7400SOL    HW123641   3.282   1.050  10.780 -1.7928 -1.5681  2.1218
 7400SOL    HW223642   3.301   1.199  10.792 -1.8340 -1.1275 -1.9906
 7401SOL     OW23643   1.594   7.754  11.913  0.1032 -0.2573  0.6652
 7401SOL    HW123644   1.594   7.714  12.000  2.0664 -1.8119  0.0069
 7401SOL    HW223645   1.524   7.709  11.866 -0.3010 -0.1098  1.1135
 7402SOL     OW23646   1.921   6.181  11.657  0.0812  0.0835  0.6223
 7402SOL    HW123647   1.883   6.175  11.745  0.7595 -0.3712  0.8930
 7402SOL    HW223648   1.996   6.240  11.667 -0.2279  0.5471  0.2094
 7403SOL     OW23649   3.633   1.582  11.667 -0.4706  0.1923  0.0303
 7403SOL    HW123650   3.569   1.626  11.612 -0.5145 -1.7486 -1.5790
 7403SOL    HW223651   3.646   1.497  11.626  0.8096 -0.6846  2.0826
 7404SOL     OW23652   4.248   1.751  12.039  0.5533 -0.0961  0.2633
 7404SOL    HW123653   4.250   1.691  11.964  1.6251  0.1427  0.0756
 7404SOL    HW223654   4.234   1.837  11.999 -1.2049 -0.2253  0.5498
 7405SOL     OW23655   2.263   1.004  11.644  0.2243  0.1523  0.4209
 7405SOL    HW123656   2.257   1.093  11.679 -1.4745 -0.3949  1.5881
 7405SOL    HW223657   2.306   1.016  11.559 -1.5247  2.3345 -0.2644
 7406SOL     OW23658   1.709   7.347  11.566 -0.2493  0.6599  0.0723
 7406SOL    HW123659   1.667   7.354  11.481 -0.9212  0.8063  0.4107
 7406SOL    HW223660   1.735   7.437  11.588 -0.6197  0.7168  0.2887
 7407SOL     OW23661   2.838   7.618  12.388 -0.5382  0.6028 -0.1116
 7407SOL    HW123662   2.775   7.570  12.442  0.9218  1.0088  2.0443
 7407SOL    HW223663   2.913   7.560  12.380  0.1499  1.4272  0.1896
 7408SOL     OW23664   2.178   1.692  10.582 -0.2038 -0.0015 -0.1565
 7408SOL    HW123665   2.133   1.695  10.667 -0.6494  2.2818 -0.4051
 7408SOL    HW223666   2.270   1.705  10.604 -0.5030  2.4824 -0.0567
 7409SOL     OW23667   4.443   0.075  10.634 -0.0131  0.0367  1.2256
 7409SOL    HW123668   4.514   0.011  10.627  0.5556  0.7565  0.1480
 7409SOL    HW223669   4.485   0.154  10.667 -0.2237  0.5779  0.2487
 7410SOL     OW23670   2.772   7.616  11.272  0.3784  0.5269 -0.0250
 7410SOL    HW123671   2.716   7.596  11.348  0.5670 -2.1145 -0.4710
 7410SOL    HW223672   2.724   7.683  11.224 -2.4853 -1.5456 -0.3451
 7411SOL     OW23673   1.535   0.616   0.122  0.2458  0.7482 -0.1578
 7411SOL    HW123674   1.485   0.642   0.044  0.0075  0.2308 -0.1842
 7411SOL    HW223675   1.471   0.616   0.193  0.1560 -0.0767 -0.2236
 7412SOL     OW23676   2.374   1.260  12.251  0.0385 -0.5581  0.7155
 7412SOL    HW123677   2.315   1.191  12.221  2.5778 -1.9857 -1.4241
 7412SOL    HW223678   2.389   1.314  12.173 -0.1802  1.1767  1.8137
 7413SOL     OW23679   1.673   0.461   9.748  0.0516 -0.5092  0.1671
 7413SOL    HW123680   1.592   0.510   9.762  1.0386  1.0930  0.5051
 7413SOL    HW223681   1.718   0.465   9.832  0.7646 -0.8768 -0.1922
 7414SOL     OW23682   1.091   0.233   0.507  0.2194 -0.9926 -0.8860
 7414SOL    HW123683   1.153   0.165   0.532  0.8052  0.2154  1.1667
 7414SOL    HW223684   1.015   0.219   0.563  0.3372  0.0099 -0.4548
 7415SOL     OW23685   1.848   0.370  12.203  0.2973 -0.1663  0.3313
 7415SOL    HW123686   1.794   0.410  12.271  1.2034  1.1198  0.3447
 7415SOL    HW223687   1.935   0.365  12.243  1.1476  1.7885 -1.1003
 7416SOL     OW23688   1.636   7.088  10.257 -0.2852  1.0977 -0.0149
 7416SOL    HW123689   1.621   6.997  10.283  0.0962  0.7598 -0.9180
 7416SOL    HW223690   1.595   7.140  10.326 -0.7448  0.2389  0.3786
 7417SOL     OW23691   1.954   1.606  12.097 -0.1290 -0.2685 -0.3341
 7417SOL    HW123692   1.929   1.698  12.085 -0.3242 -0.3964 -0.9806
 7417SOL    HW223693   2.043   1.600  12.063  0.4109 -0.0362  0.9930
 7418SOL     OW23694   3.565   1.055  12.055  0.2652  0.1516  0.2008
 7418SOL    HW123695   3.540   1.102  12.135  1.0432 -0.2096  0.6682
 7418SOL    HW223696   3.547   0.963  12.075  2.9751 -0.2811  1.0114
 7419SOL     OW23697   3.112   2.277  12.394  0.2417 -0.1106  0.4171
 7419SOL    HW123698   3.055   2.340  12.348  1.8923  1.1014 -0.0506
 7419SOL    HW223699   3.083   2.191  12.363 -0.0110  0.5784 -1.3498
 7420SOL     OW23700   3.535   0.753  12.315 -0.3481 -0.3585  0.0622
 7420SOL    HW123701   3.485   0.803  12.251  0.5837 -0.0595 -0.4525
 7420SOL    HW223702   3.480   0.751  12.393 -1.5194 -0.7506 -0.7413
 7421SOL     OW23703   1.324   1.449  11.326 -0.0221  0.3212  0.2205
 7421SOL    HW123704   1.300   1.477  11.414 -0.8691 -1.0343  0.4452
 7421SOL    HW223705   1.296   1.358  11.321  0.2955  0.2786 -1.3524
 7422SOL     OW23706   3.102   0.274  11.866  0.8186  0.0734 -0.0894
 7422SOL    HW123707   3.084   0.363  11.836  0.6950 -0.2055 -0.8561
 7422SOL    HW223708   3.065   0.271  11.954 -0.3968  0.3718 -0.5731
 7423SOL     OW23709   3.583   1.973  11.543  0.5612 -0.5756 -0.6177
 7423SOL    HW123710   3.529   2.032  11.596  0.9197  1.2532 -2.1932
 7423SOL    HW223711   3.535   1.891  11.541 -1.5291  0.5954 -0.8908
 7424SOL     OW23712   1.822   0.474  10.015  0.1422  0.3080  0.1122
 7424SOL    HW123713   1.765   0.412  10.063 -0.3986  0.6254 -0.1072
 7424SOL    HW223714   1.910   0.453  10.045 -0.0518 -0.4471  0.1866
 7425SOL     OW23715   0.451   1.169   0.294  0.3013 -0.3158 -0.0229
 7425SOL    HW123716   0.469   1.260   0.269 -0.9217  0.1081  0.5429
 7425SOL    HW223717   0.444   1.122   0.211  0.6163  0.1720 -0.3300
 7426SOL     OW23718   1.605   0.341   0.171  0.3320  0.2360 -0.2626
 7426SOL    HW123719   1.572   0.298   0.250 -0.1884  0.9872 -0.0650
 7426SOL    HW223720   1.674   0.400   0.203  0.2798  0.3713 -0.3990
 7427SOL     OW23721   2.650   6.729  11.628  1.0456  0.0149  0.0122
 7427SOL    HW123722   2.636   6.769  11.714 -0.0001 -1.9338  0.8094
 7427SOL    HW223723   2.742   6.749  11.607  0.6808  2.4995  0.4482
 7428SOL     OW23724   2.392   7.629  11.361 -0.1036 -0.0468 -0.3859
 7428SOL    HW123725   2.302   7.655  11.340 -0.3234 -1.1559 -0.8454
 7428SOL    HW223726   2.440   7.639  11.278  0.3145  0.9624 -0.0421
 7429SOL     OW23727   3.679   7.901  10.800 -0.3916 -0.0780  0.5408
 7429SOL    HW123728   3.775   7.905  10.799 -0.4400  2.3390  0.1122
 7429SOL    HW223729   3.659   7.817  10.842  1.8969 -1.1343 -0.3286
 7430SOL     OW23730   3.514   0.385   0.212  0.6100 -0.0789  0.5498
 7430SOL    HW123731   3.607   0.406   0.211  1.3564 -2.8775  1.7804
 7430SOL    HW223732   3.500   0.335   0.132 -0.0474  0.9599 -0.0055
 7431SOL     OW23733   2.570   1.952  11.934  0.0844 -0.2537  0.1426
 7431SOL    HW123734   2.546   1.954  11.841  3.8679 -1.0436 -1.0435
 7431SOL    HW223735   2.536   2.034  11.969  1.3155  1.7008 -2.8058
 7432SOL     OW23736   4.396   1.310  10.937 -0.3749 -0.2875 -0.2127
 7432SOL    HW123737   4.430   1.349  10.856 -1.5526 -2.5332 -1.8957
 7432SOL    HW223738   4.323   1.367  10.962  1.0227  1.3804  0.2922
 7433SOL     OW23739   3.256   0.986  11.820 -0.3222  0.2709 -0.6155
 7433SOL    HW123740   3.345   0.984  11.786 -0.6447 -0.3696 -1.4692
 7433SOL    HW223741   3.245   1.074  11.856  0.1917  0.8243 -1.7861
 7434SOL     OW23742   2.861   2.116  12.003  0.0628 -0.8396  0.1620
 7434SOL    HW123743   2.781   2.101  11.952 -0.6743  0.3212  0.9285
 7434SOL    HW223744   2.866   2.041  12.062 -0.3391 -1.0308 -0.0440
 7435SOL     OW23745   1.774   1.211  11.318  0.4416 -0.2111  0.5996
 7435SOL    HW123746   1.813   1.148  11.379  0.0652 -1.0386  0.0054
 7435SOL    HW223747   1.702   1.163  11.277  0.7410  0.2973 -0.5586
 7436SOL     OW23748   1.635   1.622  12.130 -0.4968  0.3191 -0.1079
 7436SOL    HW123749   1.638   1.708  12.087 -1.6285  0.4967  0.1572
 7436SOL    HW223750   1.665   1.561  12.062 -2.0856  0.6188 -1.1318
 7437SOL     OW23751   3.652   1.466  10.026  0.2889 -0.2850 -0.1938
 7437SOL    HW123752   3.628   1.558  10.039  1.1402 -0.1257  0.3506
 7437SOL    HW223753   3.714   1.448  10.097  2.8913 -0.2469 -2.3117
 7438SOL     OW23754   2.179   2.034  10.706 -0.3110 -0.5503  0.2009
 7438SOL    HW123755   2.262   2.059  10.747 -0.7405  0.4432  0.4918
 7438SOL    HW223756   2.156   1.952  10.749 -0.1152 -0.1769  1.0460
 7439SOL     OW23757   2.017   0.656  10.629 -0.0604  0.3347 -0.0783
 7439SOL    HW123758   1.922   0.649  10.641 -0.0460  0.4410  0.1040
 7439SOL    HW223759   2.052   0.653  10.718  0.1744 -0.7131 -0.1957
 7440SOL     OW23760   1.146   0.295   0.068 -0.0474 -0.4339 -0.2065
 7440SOL    HW123761   1.225   0.249   0.096 -0.3734  0.3609  2.2074
 7440SOL    HW223762   1.177   0.360   0.005  1.4338  0.7063  1.6175
 7441SOL     OW23763   7.799   1.280   1.145  0.1872 -0.5203 -0.4578
 7441SOL    HW123764   7.777   1.366   1.181 -1.8231 -0.0719 -2.5407
 7441SOL    HW223765   7.742   1.219   1.192 -1.2133 -0.1539 -1.6052
 7442SOL     OW23766   1.134   6.507   0.243 -0.2856 -0.7078  0.1745
 7442SOL    HW123767   1.137   6.525   0.337  0.8813 -0.1867  0.0463
 7442SOL    HW223768   1.159   6.590   0.202  1.8303 -1.6284 -0.5134
 7443SOL     OW23769   2.460   0.144   1.329 -0.1358  0.1633 -0.8358
 7443SOL    HW123770   2.546   0.101   1.326 -1.2494 -2.4802  0.6978
 7443SOL    HW223771   2.431   0.145   1.238  1.5681  1.3250 -1.4189
 7444SOL     OW23772   1.873   0.922  11.013  0.0338 -0.2937 -0.0512
 7444SOL    HW123773   1.783   0.896  11.032  0.5167 -1.8952  0.1849
 7444SOL    HW223774   1.923   0.892  11.088  1.1570 -1.9101 -1.3875
 7445SOL     OW23775   1.762   1.147  10.905  0.5545  0.0603  0.1007
 7445SOL    HW123776   1.726   1.198  10.977 -1.8410 -1.5237  0.1255
 7445SOL    HW223777   1.826   1.090  10.947 -0.2423 -0.2921  0.8714
 7446SOL     OW23778   0.819   0.808   0.747 -0.0088 -0.5025 -0.5819
 7446SOL    HW123779   0.818   0.903   0.762  0.5839 -0.5819  0.0075
 7446SOL    HW223780   0.727   0.783   0.746 -0.1474 -0.2734  1.6628
 7447SOL     OW23781   1.655   1.932   0.889  0.4160 -0.2726 -0.1320
 7447SOL    HW123782   1.573   1.953   0.935  0.2581  0.7070 -0.8162
 7447SOL    HW223783   1.717   1.999   0.919  0.5715 -0.1822 -0.6503
 7448SOL     OW23784   2.394   0.124  11.051  0.4978 -0.2471 -0.8960
 7448SOL    HW123785   2.401   0.067  11.127  0.1349 -0.7949 -1.2680
 7448SOL    HW223786   2.484   0.152  11.034  0.6752 -0.6930 -0.6991
 7449SOL     OW23787   4.395   2.035   0.516  0.2020 -0.5957  1.1769
 7449SOL    HW123788   4.308   1.994   0.517 -0.1459 -0.1277 -1.5121
 7449SOL    HW223789   4.453   1.968   0.552 -1.1521 -1.2257  2.2714
 7450SOL     OW23790   1.781   1.270  12.425 -0.1230 -0.1295  0.3400
 7450SOL    HW123791   1.785   1.176  12.442 -0.4190 -0.4145 -1.1140
 7450SOL    HW223792   1.845   1.286  12.356  0.5935  0.9090  1.1921
 7451SOL     OW23793   1.753   0.553  12.401  0.1311 -0.0694 -0.1262
 7451SOL    HW123794   1.812   0.496  12.450  0.8014 -0.5534 -1.4521
 7451SOL    HW223795   1.700   0.596  12.468  1.2984 -0.3887  1.0363
 7452SOL     OW23796   2.585   7.936  12.445  0.1883  0.0417 -0.1425
 7452SOL    HW123797   2.618   7.880  12.374  0.2980 -1.0659  0.7590
 7452SOL    HW223798   2.493   7.950  12.422  0.7159  1.4675 -1.5943
 7453SOL     OW23799   2.859   1.728   0.700  0.9087  0.3147  0.0622
 7453SOL    HW123800   2.831   1.777   0.777 -0.5620 -0.9222  0.3792
 7453SOL    HW223801   2.786   1.668   0.682  1.3014  0.4040 -2.1675
 7454SOL     OW23802   1.537   1.385   0.014 -0.2363  0.2717  0.4046
 7454SOL    HW123803   1.593   1.317  -0.023 -0.0697 -0.2712  1.5914
 7454SOL    HW223804   1.579   1.468  -0.010  0.2443 -0.0905  0.0039
 7455SOL     OW23805   3.506   0.138  11.602 -0.1292  0.0204 -0.4804
 7455SOL    HW123806   3.446   0.165  11.671  0.0721  2.0604 -1.0433
 7455SOL    HW223807   3.455   0.079  11.547 -1.4532  1.2432 -0.6075
 7456SOL     OW23808   4.682   1.214   0.526 -0.5347 -0.0464 -0.1897
 7456SOL    HW123809   4.644   1.261   0.600 -1.8933 -0.1467 -0.7966
 7456SOL    HW223810   4.652   1.262   0.449  0.6065 -0.1289 -0.7051
 7457SOL     OW23811   4.279   7.142   1.258  0.3225  0.5288  0.1862
 7457SOL    HW123812   4.289   7.130   1.164  0.9170  0.2595  0.2797
 7457SOL    HW223813   4.353   7.095   1.297  0.2153  0.8288  0.7764
 7458SOL     OW23814   1.889   0.063  11.750 -0.5411 -0.2575 -0.0686
 7458SOL    HW123815   1.851  -0.022  11.772 -1.0744 -0.1827 -0.6669
 7458SOL    HW223816   1.885   0.067  11.654 -0.5650  0.4567 -0.0459
 7459SOL     OW23817   4.985   1.877  12.340  0.9426  0.3911  0.0299
 7459SOL    HW123818   5.014   1.788  12.323  2.7684  1.2352 -1.6254
 7459SOL    HW223819   5.057   1.918  12.389  0.1291  0.9702  0.7807
 7460SOL     OW23820   0.741   7.655   3.025 -0.4136  0.2797  0.5879
 7460SOL    HW123821   0.724   7.624   2.936 -0.7749  0.4918  0.5824
 7460SOL    HW223822   0.792   7.585   3.065  1.2665  0.9170 -0.3235
 7461SOL     OW23823   1.608   2.001  12.422  0.1316 -0.8285  0.3372
 7461SOL    HW123824   1.694   1.963  12.437  0.5014 -0.1392  0.0067
 7461SOL    HW223825   1.626   2.084  12.377 -0.6631 -0.3505  0.8838
 7462SOL     OW23826   3.245   2.537  10.993  0.4933  0.0076 -0.8723
 7462SOL    HW123827   3.308   2.553  10.923  0.9905  0.0675 -0.4182
 7462SOL    HW223828   3.245   2.618  11.045  0.0665 -0.0042 -0.8440
 7463SOL     OW23829   2.408   1.685  11.912 -0.5733 -0.2488 -0.1807
 7463SOL    HW123830   2.405   1.703  11.818 -0.0169 -1.4719 -0.4600
 7463SOL    HW223831   2.501   1.691  11.935 -0.7118  0.1054  0.3081
 7464SOL     OW23832   3.092   1.890  11.577  0.5219  0.2302  0.8299
 7464SOL    HW123833   3.045   1.968  11.548 -0.8640 -1.5221 -2.0035
 7464SOL    HW223834   3.149   1.867  11.504  1.9554 -0.6857  2.1604
 7465SOL     OW23835   0.804   2.265   9.855 -0.1604 -0.6369  0.8061
 7465SOL    HW123836   0.802   2.176   9.888 -1.7063  0.0725  2.9063
 7465SOL    HW223837   0.779   2.258   9.763  1.4218 -2.4841  0.4795
 7466SOL     OW23838   4.550   0.115   0.989 -0.4176  0.0098 -0.1774
 7466SOL    HW123839   4.639   0.087   1.012  0.5790  0.7162 -2.8487
 7466SOL    HW223840   4.516   0.046   0.934 -1.5446 -0.2058  0.7427
 7467SOL     OW23841   1.445   0.589   9.796  0.0070  0.0961 -0.0436
 7467SOL    HW123842   1.411   0.650   9.861 -0.2796 -1.1316  1.0094
 7467SOL    HW223843   1.397   0.609   9.716  0.1070  1.3964  0.1994
 7468SOL     OW23844   2.738   7.926  11.543 -0.0109 -0.1911 -0.5463
 7468SOL    HW123845   2.719   7.971  11.460  0.9736 -0.5397 -0.9737
 7468SOL    HW223846   2.705   7.986  11.610  0.4394  0.7548 -1.1389
 7469SOL     OW23847   0.279   0.108  11.471  0.2087 -0.4992 -0.3456
 7469SOL    HW123848   0.292   0.093  11.377  0.7451 -0.2726 -0.3131
 7469SOL    HW223849   0.365   0.090  11.510  0.2694  0.4166 -0.0259
 7470SOL     OW23850   4.488   0.110  11.283  0.6302  0.1364  0.9231
 7470SOL    HW123851   4.456   0.189  11.326 -1.6439  0.1917 -0.7002
 7470SOL    HW223852   4.440   0.039  11.327  0.2940 -0.0325  0.2964
 7471SOL     OW23853   2.690   1.098   0.614 -0.3862 -0.2867  0.5018
 7471SOL    HW123854   2.635   1.124   0.540 -1.7100 -0.1390  1.5046
 7471SOL    HW223855   2.752   1.170   0.625 -1.5847  0.7155  0.8803
 7472SOL     OW23856   2.842   0.393  11.564  0.1944  0.1373 -0.0747
 7472SOL    HW123857   2.826   0.400  11.470 -1.1585  0.5499  0.1643
 7472SOL    HW223858   2.902   0.318  11.572 -1.4318 -1.3562 -1.1136
 7473SOL     OW23859   1.606   0.376  11.178 -0.5814  0.5502  0.6493
 7473SOL    HW123860   1.525   0.346  11.139 -0.9831 -0.4234  2.1329
 7473SOL    HW223861   1.588   0.466  11.206  0.1759  1.8252 -2.5360
 7474SOL     OW23862   1.857   1.980  10.968 -0.5253  0.5588 -0.0106
 7474SOL    HW123863   1.828   1.967  11.059  0.4986 -0.8881  0.1366
 7474SOL    HW223864   1.862   2.075  10.958 -1.6787  0.7653  1.1077
 7475SOL     OW23865   3.175   0.880  11.000  0.2486 -0.5216 -0.5055
 7475SOL    HW123866   3.188   0.942  10.928 -1.4088 -0.0353 -0.4222
 7475SOL    HW223867   3.215   0.922  11.076 -0.8451  0.4509 -0.4499
 7476SOL     OW23868   3.187   1.269  11.862 -0.2931 -0.6278 -0.2618
 7476SOL    HW123869   3.248   1.332  11.899 -1.6050  0.3093  0.4035
 7476SOL    HW223870   3.171   1.300  11.773 -1.9240  0.8244  0.4631
 7477SOL     OW23871   3.834   0.916   0.771 -0.0132  0.3207  0.1002
 7477SOL    HW123872   3.756   0.860   0.771  0.3362 -0.1770 -0.0950
 7477SOL    HW223873   3.826   0.968   0.691  0.2644 -0.3293 -0.3632
 7478SOL     OW23874   3.862   0.593  10.197 -0.5288 -0.2310  0.3150
 7478SOL    HW123875   3.875   0.617  10.105 -0.5977 -1.1075  0.0613
 7478SOL    HW223876   3.949   0.570  10.228  0.0534  2.8931  1.3738
 7479SOL     OW23877   4.143   6.627  10.721  0.0564 -0.4625 -0.4060
 7479SOL    HW123878   4.189   6.543  10.721  1.8776  0.3663  2.4989
 7479SOL    HW223879   4.095   6.628  10.804  1.2966  1.8604  0.3942
 7480SOL     OW23880   4.117   7.538  12.191  0.1021 -0.4361 -0.2547
 7480SOL    HW123881   4.199   7.574  12.159 -0.0180  0.5760  0.5191
 7480SOL    HW223882   4.135   7.515  12.282 -0.0019 -1.7991 -0.5598
 7481SOL     OW23883   2.610   1.120  12.002 -0.2295 -0.0697  0.0158
 7481SOL    HW123884   2.538   1.062  12.026 -0.8688  0.6539 -0.1235
 7481SOL    HW223885   2.570   1.207  11.996  0.1675  0.0387 -2.1659
 7482SOL     OW23886   3.281   2.248  11.353 -0.2883  0.2536 -0.0684
 7482SOL    HW123887   3.305   2.283  11.267  0.6465  1.0434  0.4975
 7482SOL    HW223888   3.279   2.325  11.411 -0.1441 -0.3690  0.7836
 7483SOL     OW23889   1.856   0.336  11.443  0.5170 -0.0543 -0.6960
 7483SOL    HW123890   1.804   0.368  11.517 -0.2688  1.2364 -1.7578
 7483SOL    HW223891   1.845   0.402  11.375  2.8441 -0.1881 -1.3039
 7484SOL     OW23892   2.638   0.860   1.276 -0.8828  0.0154 -0.1591
 7484SOL    HW123893   2.704   0.873   1.208 -0.5194  0.2229  0.2242
 7484SOL    HW223894   2.631   0.946   1.319  0.1604 -0.5305  1.1861
 7485SOL     OW23895   1.977   0.735  11.885  0.0577  0.0231  0.2069
 7485SOL    HW123896   1.930   0.816  11.904 -2.6763 -1.5662  0.7771
 7485SOL    HW223897   2.015   0.749  11.799 -0.7124  1.7440  0.1039
 7486SOL     OW23898   2.824   1.495   9.954  0.6453  0.9144 -0.1551
 7486SOL    HW123899   2.904   1.479   9.904  0.4956 -1.7075  0.3205
 7486SOL    HW223900   2.765   1.537   9.892  1.1256 -0.5264 -1.6662
 7487SOL     OW23901   1.182   0.238  10.122 -0.2261  0.2066  0.3231
 7487SOL    HW123902   1.174   0.206  10.032 -0.5796  0.9903  0.0666
 7487SOL    HW223903   1.110   0.300  10.132  0.4896  0.9967  0.7714
 7488SOL     OW23904   2.617   1.484  11.841  0.5664 -0.1507  0.0560
 7488SOL    HW123905   2.641   1.498  11.749  0.4902 -0.0717  0.0482
 7488SOL    HW223906   2.640   1.566  11.885  0.9398 -0.3166  0.1774
 7489SOL     OW23907   0.867   7.993   0.961  0.0632  0.1026  0.1071
 7489SOL    HW123908   0.930   8.064   0.970  1.3184 -0.7749 -1.1550
 7489SOL    HW223909   0.880   7.939   1.039 -1.4440  1.6082  1.4626
 7490SOL     OW23910   0.840   2.504  11.749 -0.5543 -0.0869 -0.1378
 7490SOL    HW123911   0.880   2.505  11.835  1.0577  0.6380 -0.8597
 7490SOL    HW223912   0.815   2.412  11.735 -0.1457 -0.3495  0.7706
 7491SOL     OW23913   1.909   0.123   0.315 -0.0871 -0.2118 -0.2554
 7491SOL    HW123914   1.978   0.164   0.368 -0.0220  0.1695 -0.6236
 7491SOL    HW223915   1.856   0.074   0.377 -0.4184  0.7835  0.2760
 7492SOL     OW23916   2.361   1.740   0.794 -0.4523  0.3224  0.4576
 7492SOL    HW123917   2.269   1.764   0.802 -1.1170 -2.2775  1.6249
 7492SOL    HW223918   2.369   1.705   0.705 -0.2587  1.6022 -0.0576
 7493SOL     OW23919   0.297   2.817   2.648  0.1477 -0.0738 -0.0292
 7493SOL    HW123920   0.373   2.760   2.641 -0.0714 -0.2111 -1.6275
 7493SOL    HW223921   0.264   2.802   2.736  2.7863  1.0818  1.2856
 7494SOL     OW23922   1.503   1.613   1.590  0.1219  0.1357  0.1860
 7494SOL    HW123923   1.521   1.655   1.674  0.5783  1.6806 -0.6340
 7494SOL    HW223924   1.541   1.673   1.525  3.2685 -2.7938 -0.9914
 7495SOL     OW23925   2.622   2.970   0.167  0.6847 -0.3447  0.5835
 7495SOL    HW123926   2.533   2.995   0.191  0.4335  0.6640 -1.2400
 7495SOL    HW223927   2.678   3.027   0.221  0.1805  0.4762  0.2583
 7496SOL     OW23928   1.830   2.340  11.828 -0.2064  0.2750 -0.4700
 7496SOL    HW123929   1.885   2.326  11.751  0.5379 -0.7818  0.2300
 7496SOL    HW223930   1.892   2.341  11.901 -0.9284  0.9907  0.1533
 7497SOL     OW23931   2.582   3.774   1.000 -0.0404 -0.7883 -0.0055
 7497SOL    HW123932   2.492   3.780   1.032  0.5566  1.5835  1.4697
 7497SOL    HW223933   2.575   3.795   0.906 -1.0183 -0.3897  0.1410
 7498SOL     OW23934   3.671   1.317   1.032 -0.0219  0.3082  0.2030
 7498SOL    HW123935   3.621   1.239   1.054 -0.2613  0.3099 -0.3400
 7498SOL    HW223936   3.651   1.378   1.104  0.5780 -0.2987  0.9047
 7499SOL     OW23937   2.967   3.348   0.743  0.1362 -0.1113  0.5840
 7499SOL    HW123938   2.885   3.396   0.737 -0.2305 -0.9042 -1.5282
 7499SOL    HW223939   3.011   3.385   0.819 -1.3023  1.6964  0.5962
 7500SOL     OW23940   2.279   2.940   1.427 -0.1837  0.1620 -0.2510
 7500SOL    HW123941   2.314   2.929   1.515  0.6785 -0.1362 -0.6277
 7500SOL    HW223942   2.226   2.862   1.412  0.3742 -0.2108 -0.3186
 7501SOL     OW23943   2.982   2.593   0.307  0.0169  0.4233 -0.1933
 7501SOL    HW123944   3.068   2.610   0.270  1.3963 -1.9561  1.6320
 7501SOL    HW223945   2.930   2.559   0.234  1.3598 -0.2325 -0.8706
 7502SOL     OW23946   1.435   2.350   1.873 -0.2606 -0.1690  0.1331
 7502SOL    HW123947   1.447   2.445   1.869 -0.7350 -0.1188 -0.1678
 7502SOL    HW223948   1.484   2.323   1.951 -1.6235  0.5795  1.3074
 7503SOL     OW23949   2.999   3.685   0.974  0.1003 -0.1036  0.1919
 7503SOL    HW123950   2.910   3.658   0.997 -0.3512 -1.0764 -2.3527
 7503SOL    HW223951   3.026   3.743   1.045 -1.3794 -2.1857  2.6154
 7504SOL     OW23952   2.781   4.660   2.162 -0.1824 -0.1189 -0.1184
 7504SOL    HW123953   2.752   4.739   2.208 -1.9140 -1.0918  0.5708
 7504SOL    HW223954   2.876   4.658   2.176 -0.0322  2.0065 -0.4815
 7505SOL     OW23955   1.461   2.261   1.621  0.7266 -0.2190  0.3793
 7505SOL    HW123956   1.541   2.212   1.639  1.7483  1.5305  0.8526
 7505SOL    HW223957   1.436   2.298   1.706 -0.0560  0.0062  0.0609
 7506SOL     OW23958   3.894   4.132   1.795  0.0118 -0.3994 -0.1321
 7506SOL    HW123959   3.802   4.152   1.815  0.2599  0.7537 -0.0988
 7506SOL    HW223960   3.914   4.055   1.848 -0.6415 -0.0634  0.6144
 7507SOL     OW23961   3.188   2.095   0.504 -0.3699 -0.2786  0.2324
 7507SOL    HW123962   3.183   2.158   0.576  0.4254 -0.9660  0.9037
 7507SOL    HW223963   3.097   2.069   0.489 -0.5145 -0.3682  1.2062
 7508SOL     OW23964   2.927   3.170   2.504 -0.1463  0.0710 -0.6610
 7508SOL    HW123965   2.968   3.084   2.516  1.0245  0.5349 -1.2041
 7508SOL    HW223966   2.962   3.224   2.575 -0.4170  0.2745 -0.6781
 7509SOL     OW23967   3.646   3.156  11.325  0.7133 -0.1374  0.2663
 7509SOL    HW123968   3.735   3.148  11.292  1.0356 -1.0870  1.2990
 7509SOL    HW223969   3.596   3.094  11.273  0.6264  0.4127 -0.3298
 7510SOL     OW23970   1.618   3.366  12.360 -0.1333  0.0468  0.3496
 7510SOL    HW123971   1.684   3.317  12.409  0.0849  0.4101  0.4268
 7510SOL    HW223972   1.669   3.418  12.297 -0.2508  1.2445  1.2165
 7511SOL     OW23973   3.838   4.298   1.141  0.0335 -0.4085  0.4225
 7511SOL    HW123974   3.888   4.286   1.061 -0.4836 -1.1059  0.1930
 7511SOL    HW223975   3.895   4.263   1.211  0.5928  0.4459  0.4055
 7512SOL     OW23976   1.078   4.042  11.825 -0.4851  0.5506 -0.0748
 7512SOL    HW123977   1.075   4.071  11.917  0.1354  1.5875 -0.3612
 7512SOL    HW223978   1.019   4.101  11.779 -1.0554 -0.1829 -0.3086
 7513SOL     OW23979   2.491   0.746   0.118 -0.1899  0.0343 -0.1610
 7513SOL    HW123980   2.585   0.727   0.123  0.0269  0.8516 -0.8447
 7513SOL    HW223981   2.482   0.832   0.160 -0.4062  0.6020 -1.3194
 7514SOL     OW23982   2.022   1.997   1.270  0.0035  0.3421  0.5937
 7514SOL    HW123983   1.969   2.054   1.325 -1.1261 -1.2760  1.2632
 7514SOL    HW223984   1.962   1.927   1.243 -0.0844  1.9498 -4.2653
 7515SOL     OW23985   3.663   2.491   0.974 -0.4603 -0.0419  1.0267
 7515SOL    HW123986   3.644   2.574   0.930 -4.2927 -2.0042 -1.6381
 7515SOL    HW223987   3.654   2.510   1.067  0.4399  2.8015  0.6123
 7516SOL     OW23988   2.662   3.624   2.209 -0.0421  0.2373 -0.2568
 7516SOL    HW123989   2.585   3.674   2.237  0.8067  0.5987  1.5584
 7516SOL    HW223990   2.632   3.533   2.209 -0.3402  0.3158  1.0024
 7517SOL     OW23991   2.898   4.138   0.724 -0.1119  0.0638  0.0654
 7517SOL    HW123992   2.853   4.204   0.778 -0.3414 -0.3729  0.4119
 7517SOL    HW223993   2.863   4.152   0.636  1.9066  2.2911 -0.4780
 7518SOL     OW23994   5.846   3.124  11.530 -0.0195 -0.4351  0.2727
 7518SOL    HW123995   5.759   3.117  11.491  0.1730  1.4361 -0.5955
 7518SOL    HW223996   5.867   3.217  11.526  1.4085 -0.6269  1.8736
 7519SOL     OW23997   1.838   4.741   0.978 -0.2162  0.4003  0.0482
 7519SOL    HW123998   1.805   4.652   0.986  2.8865 -1.2484 -2.9655
 7519SOL    HW223999   1.887   4.756   1.059  0.5384 -1.2931 -0.0668
 7520SOL     OW24000   2.333   3.721   0.812 -0.2910  0.0884 -0.1133
 7520SOL    HW124001   2.331   3.775   0.891  1.1244 -0.5442  0.4027
 7520SOL    HW224002   2.301   3.779   0.742 -1.3600  0.7254  0.8751
 7521SOL     OW24003   4.182   2.551   1.146 -0.1004  0.2260  0.5664
 7521SOL    HW124004   4.136   2.611   1.088  1.6776 -0.4448 -1.6691
 7521SOL    HW224005   4.207   2.477   1.090 -1.3544 -2.2199  2.9772
 7522SOL     OW24006   2.079   1.010   1.472 -0.0613 -0.2016  0.5007
 7522SOL    HW124007   2.066   1.104   1.475 -0.5071 -0.1816 -1.1582
 7522SOL    HW224008   2.164   0.998   1.430  0.4444 -0.5442  1.5734
 7523SOL     OW24009   0.445   2.415   0.119 -0.1167 -0.2923 -0.3259
 7523SOL    HW124010   0.457   2.474   0.193 -0.5943  0.2766 -0.6920
 7523SOL    HW224011   0.518   2.435   0.060 -0.0447 -0.3629 -0.2615
 7524SOL     OW24012   3.371   5.560   1.599 -0.2438 -0.0556 -0.0179
 7524SOL    HW124013   3.397   5.588   1.512  3.5956  1.3711  1.3806
 7524SOL    HW224014   3.315   5.632   1.632 -2.4329 -0.9933 -1.4561
 7525SOL     OW24015   1.836   3.281   2.834 -0.2178  0.4246 -0.3988
 7525SOL    HW124016   1.858   3.194   2.868 -1.5242  0.6649  1.1667
 7525SOL    HW224017   1.764   3.266   2.774  0.0694  0.3452 -0.7259
 7526SOL     OW24018   4.092   3.899   1.926 -0.4030  0.3146 -0.3043
 7526SOL    HW124019   4.051   3.898   2.012 -2.2412  1.5810 -1.0842
 7526SOL    HW224020   4.081   3.810   1.893 -0.6176  0.0935  0.3481
 7527SOL     OW24021   4.896   1.979  11.774 -0.3333 -0.1950 -0.1239
 7527SOL    HW124022   4.980   2.000  11.815 -1.4522  3.0780  0.8172
 7527SOL    HW224023   4.870   1.895  11.813  0.4983  0.8675  3.0246
 7528SOL     OW24024   1.411   1.978   0.085 -0.0308  0.4971  0.9014
 7528SOL    HW124025   1.485   2.003   0.030 -0.4899  2.0205  0.9154
 7528SOL    HW224026   1.394   1.886   0.063  1.6728  0.2080  0.7179
 7529SOL     OW24027   1.654   2.233   1.178 -0.4287  0.7619  0.3096
 7529SOL    HW124028   1.562   2.226   1.153 -0.6462 -1.3116  1.5200
 7529SOL    HW224029   1.653   2.281   1.261 -0.6071 -0.5891  1.1202
 7530SOL     OW24030   3.373   2.848   0.493 -0.1255  0.6053 -0.3016
 7530SOL    HW124031   3.468   2.858   0.505 -0.1466 -0.2102  0.6645
 7530SOL    HW224032   3.365   2.788   0.419  0.1216  0.1764  0.0174
 7531SOL     OW24033   2.423   2.305   1.912 -0.3166 -0.1880 -0.0597
 7531SOL    HW124034   2.347   2.293   1.968 -0.4479 -1.2470 -0.4380
 7531SOL    HW224035   2.489   2.345   1.969 -0.4681 -1.1834  0.8446
 7532SOL     OW24036   4.774   2.949   2.206 -0.4232 -0.4646 -0.6324
 7532SOL    HW124037   4.745   2.930   2.296 -1.3562 -3.2394 -1.4206
 7532SOL    HW224038   4.862   2.913   2.201 -0.1494  0.1994 -0.6955
 7533SOL     OW24039   4.060   5.170   0.114  0.2644 -0.6275 -0.4134
 7533SOL    HW124040   4.146   5.127   0.114  0.0377 -1.0843 -0.7943
 7533SOL    HW224041   4.007   5.115   0.173  0.2641 -0.2775 -0.0831
 7534SOL     OW24042   2.785   3.162   0.288  0.3252 -0.1123 -0.4074
 7534SOL    HW124043   2.787   3.158   0.384 -0.9508  1.5035 -0.2836
 7534SOL    HW224044   2.774   3.255   0.268  1.6749 -0.2917 -2.1694
 7535SOL     OW24045   2.890   2.355   1.374 -0.5223 -0.6981 -0.0635
 7535SOL    HW124046   2.795   2.349   1.364 -0.4520 -0.5771 -0.8876
 7535SOL    HW224047   2.905   2.444   1.404 -0.5585 -0.1396 -1.6252
 7536SOL     OW24048   2.132   1.921   0.717  0.2168 -0.1080  0.3023
 7536SOL    HW124049   2.095   2.004   0.688 -0.4479 -0.1592  0.9588
 7536SOL    HW224050   2.087   1.903   0.800  2.5126  0.3688  1.7295
 7537SOL     OW24051   1.645   3.410   1.197  0.6951 -0.1977  0.0410
 7537SOL    HW124052   1.666   3.503   1.207 -0.6266  0.0373  0.8882
 7537SOL    HW224053   1.639   3.378   1.287 -0.3349 -0.7526 -0.2194
 7538SOL     OW24054   4.166   3.754   0.471 -0.6141 -0.2497 -0.2344
 7538SOL    HW124055   4.205   3.841   0.465 -0.6868 -0.1462  0.7510
 7538SOL    HW224056   4.199   3.717   0.552 -0.8545 -1.0140 -0.4733
 7539SOL     OW24057   3.974   1.041   0.274  0.4964 -0.5561  0.1040
 7539SOL    HW124058   4.013   1.079   0.353  1.1029  0.9920 -0.8987
 7539SOL    HW224059   3.970   1.114   0.212  0.0525 -1.7443 -1.3044
 7540SOL     OW24060   4.779   0.962   0.538  0.8199  0.6603  0.0552
 7540SOL    HW124061   4.722   0.914   0.479  1.8953  0.2258 -0.6521
 7540SOL    HW224062   4.727   1.039   0.563 -0.0696  0.2816 -0.5517
 7541SOL     OW24063   2.966   4.555  12.417  0.0779 -0.1475  0.1295
 7541SOL    HW124064   2.871   4.545  12.425  0.2462 -0.9757  1.3998
 7541SOL    HW224065   2.987   4.629  12.474  0.2127 -0.0465 -0.0506
 7542SOL     OW24066   1.767   2.073  11.978 -0.2358  0.7793  0.0465
 7542SOL    HW124067   1.700   2.005  11.971  0.8135 -0.2424 -0.3836
 7542SOL    HW224068   1.718   2.155  11.971 -1.3575  0.0600 -0.9766
 7543SOL     OW24069   2.487   2.312   0.898 -0.5978 -0.2364 -0.5764
 7543SOL    HW124070   2.550   2.242   0.880 -1.0714 -0.7062 -0.4427
 7543SOL    HW224071   2.536   2.375   0.950  0.1780  0.1085 -1.6758
 7544SOL     OW24072   5.563   2.808   1.657  0.1358 -0.2392 -0.1310
 7544SOL    HW124073   5.527   2.832   1.742  0.9613  0.2566  0.0793
 7544SOL    HW224074   5.544   2.714   1.649 -0.0186 -0.2687  0.5523
 7545SOL     OW24075   1.822   3.967   2.054 -0.2380  0.2713  0.0302
 7545SOL    HW124076   1.829   3.910   1.978 -0.1059  1.2755 -0.7224
 7545SOL    HW224077   1.908   3.962   2.096 -0.2455 -0.1124  0.0055
 7546SOL     OW24078   1.745   4.454  11.983 -0.4055  0.0233  0.6088
 7546SOL    HW124079   1.658   4.415  11.974 -0.9703  1.6704 -1.7900
 7546SOL    HW224080   1.733   4.524  12.047 -0.7996  0.1650  0.3804
 7547SOL     OW24081   2.149   3.105   1.213 -0.0857 -0.0941 -0.3940
 7547SOL    HW124082   2.211   3.047   1.257 -1.0883 -1.7502 -1.0608
 7547SOL    HW224083   2.090   3.134   1.283  1.6071  1.8206  0.3196
 7548SOL     OW24084   3.402   5.338   0.745 -0.0006 -0.2532  0.1482
 7548SOL    HW124085   3.363   5.293   0.820 -1.9330 -0.1498 -0.7220
 7548SOL    HW224086   3.381   5.431   0.759 -0.9581 -0.3027 -0.7918
 7549SOL     OW24087   2.191   4.228  10.845 -0.0726 -0.0390  0.3678
 7549SOL    HW124088   2.227   4.314  10.826 -0.4863 -0.0631 -0.5705
 7549SOL    HW224089   2.117   4.244  10.903 -0.8054  0.3468 -0.6497
 7550SOL     OW24090   2.699   1.666   1.675  1.0470 -0.2627  0.0527
 7550SOL    HW124091   2.706   1.735   1.741  1.1641 -1.3155  1.1673
 7550SOL    HW224092   2.632   1.607   1.708  1.4892 -1.0998 -0.5015
 7551SOL     OW24093   1.963   4.619   0.671  0.1697 -0.0107 -0.3757
 7551SOL    HW124094   1.889   4.668   0.708 -0.5238  1.0745 -2.9827
 7551SOL    HW224095   1.952   4.530   0.705 -0.8859  0.6859  1.2510
 7552SOL     OW24096   2.436   4.225  12.142 -0.1486  0.1560  0.0335
 7552SOL    HW124097   2.484   4.157  12.095 -0.4835 -1.3784  1.7949
 7552SOL    HW224098   2.493   4.302  12.137  0.8604 -0.6200 -0.9089
 7553SOL     OW24099   4.549   0.141   0.589  0.1493 -0.7139  0.2575
 7553SOL    HW124100   4.534   0.063   0.642 -0.5774  0.0331  1.1978
 7553SOL    HW224101   4.603   0.197   0.644  1.2597 -0.8244 -0.6874
 7554SOL     OW24102   3.440   3.941  11.893  0.0014 -0.0992 -0.7139
 7554SOL    HW124103   3.472   3.867  11.840  0.4127 -1.0913  0.8357
 7554SOL    HW224104   3.356   3.964  11.854  0.2820 -0.7921 -1.7875
 7555SOL     OW24105   4.152   2.052   0.791 -0.1972  0.4306  0.8140
 7555SOL    HW124106   4.152   2.138   0.750  1.8533 -0.5579 -1.4716
 7555SOL    HW224107   4.071   2.049   0.841 -1.3947  2.8422 -0.8305
 7556SOL     OW24108   2.191   3.561   1.230 -0.6003 -0.1072 -0.4021
 7556SOL    HW124109   2.124   3.539   1.296  0.0463 -0.3193  0.1940
 7556SOL    HW224110   2.215   3.651   1.249 -1.5354  0.3707 -1.3535
 7557SOL     OW24111   1.226   2.148   3.149 -0.1265 -0.5072 -0.0441
 7557SOL    HW124112   1.207   2.237   3.119  2.6316  0.2528  0.2423
 7557SOL    HW224113   1.156   2.095   3.111 -1.5410  1.6821 -0.6691
 7558SOL     OW24114   2.481   2.343   0.449 -0.3185 -0.1336  0.1062
 7558SOL    HW124115   2.551   2.348   0.514 -1.0184 -1.1299  0.9851
 7558SOL    HW224116   2.487   2.425   0.400  1.1990 -0.0296  0.4181
 7559SOL     OW24117   3.348   3.158   0.484 -0.2013 -0.2244 -0.3832
 7559SOL    HW124118   3.382   3.069   0.496 -0.8989 -0.4343  0.0817
 7559SOL    HW224119   3.425   3.214   0.493  0.1080 -0.7234  0.1964
 7560SOL     OW24120   3.428   3.859   0.563 -0.5974  0.0903 -0.0731
 7560SOL    HW124121   3.383   3.776   0.545 -0.6105 -0.2937  1.5815
 7560SOL    HW224122   3.497   3.836   0.625 -0.6599  1.3406  0.4877
 7561SOL     OW24123   3.764   4.406   2.374  0.0305  0.1678 -0.3367
 7561SOL    HW124124   3.701   4.438   2.309 -0.6006  1.0556  0.6784
 7561SOL    HW224125   3.784   4.483   2.427  0.1103 -0.6614  0.8615
 7562SOL     OW24126   2.966   1.934   0.869 -0.5198  0.8564 -0.3742
 7562SOL    HW124127   2.979   2.024   0.838 -0.9791  1.7934  1.9158
 7562SOL    HW224128   2.892   1.940   0.930 -1.0980 -1.2556 -0.7951
 7563SOL     OW24129   2.435   1.363  11.991 -0.1808  0.6934 -0.1970
 7563SOL    HW124130   2.509   1.411  11.955  0.2974  0.8546  0.9643
 7563SOL    HW224131   2.381   1.340  11.915  1.0891  0.5130 -1.0584
 7564SOL     OW24132   3.913   2.371   0.908 -0.1372  0.5192  0.1915
 7564SOL    HW124133   3.839   2.428   0.929 -1.3645 -0.5468 -1.0239
 7564SOL    HW224134   3.899   2.345   0.817  1.8217  0.3656 -0.1104
 7565SOL     OW24135   5.877   0.712  12.227  0.0375 -0.0695 -0.3263
 7565SOL    HW124136   5.802   0.711  12.168 -0.5041  0.6256  0.3389
 7565SOL    HW224137   5.855   0.648  12.294 -0.2607  0.6045  0.2266
 7566SOL     OW24138   1.154   2.654   0.495 -0.1396 -0.1664 -0.2729
 7566SOL    HW124139   1.185   2.564   0.487  1.4454  0.2588  0.5912
 7566SOL    HW224140   1.206   2.703   0.431 -0.7623  0.1990 -0.5090
 7567SOL     OW24141   2.606   1.564   0.362 -0.1764 -0.2634 -0.0791
 7567SOL    HW124142   2.545   1.609   0.420  0.5746  0.8056 -0.0902
 7567SOL    HW224143   2.560   1.556   0.279 -0.8914 -0.9197  0.3742
 7568SOL     OW24144   3.357   2.435   0.885 -0.2495  0.2223 -0.2324
 7568SOL    HW124145   3.420   2.365   0.899  0.0245  0.8776  2.2121
 7568SOL    HW224146   3.410   2.510   0.857 -0.1923  0.2157 -0.1423
 7569SOL     OW24147   2.384   3.764  11.613 -0.2436  0.4712  0.2680
 7569SOL    HW124148   2.325   3.710  11.665 -0.5878  0.7338  0.1579
 7569SOL    HW224149   2.364   3.742  11.522  0.9768 -0.6394  0.2419
 7570SOL     OW24150   3.111   3.630   0.286 -0.1508  0.0086  0.3850
 7570SOL    HW124151   3.176   3.649   0.218 -0.5957 -1.0872 -0.3603
 7570SOL    HW224152   3.157   3.650   0.368  0.3882  1.3492 -0.2149
 7571SOL     OW24153   2.108   1.340   0.339  0.2667  0.2332  0.0160
 7571SOL    HW124154   2.079   1.251   0.320 -0.3039  0.5797 -0.8233
 7571SOL    HW224155   2.196   1.330   0.374  0.1164 -0.6751  0.1482
 7572SOL     OW24156   0.998   1.559  11.842  0.2947  0.1741 -0.0941
 7572SOL    HW124157   1.068   1.569  11.777 -0.5624  0.9256 -0.9304
 7572SOL    HW224158   0.940   1.493  11.805  0.1865  0.0749  0.2540
 7573SOL     OW24159   3.128   2.919   0.946 -0.3551  0.3476  0.5920
 7573SOL    HW124160   3.100   2.843   0.896  0.4860 -0.4403  1.2855
 7573SOL    HW224161   3.059   2.931   1.012 -0.0656 -0.3547  1.0289
 7574SOL     OW24162   2.204   2.927  12.448  0.1793  0.2230 -0.2037
 7574SOL    HW124163   2.237   3.017  12.441  0.3831  0.1939  0.3785
 7574SOL    HW224164   2.126   2.926  12.391 -1.2691  1.4461  1.6128
 7575SOL     OW24165   4.175   1.826  12.499 -0.2234  0.1654 -0.4718
 7575SOL    HW124166   4.107   1.796  12.560 -0.0643 -1.0445 -0.8711
 7575SOL    HW224167   4.132   1.826  12.413  0.4489 -1.2647 -0.8296
 7576SOL     OW24168   3.378   3.868   0.949 -0.5308  0.5054  0.9361
 7576SOL    HW124169   3.465   3.887   0.914  0.0574 -0.3524  1.8884
 7576SOL    HW224170   3.318   3.901   0.882  0.5201 -2.4256 -1.6806
 7577SOL     OW24171   3.419   2.930   0.748  0.2482 -0.1291 -0.4199
 7577SOL    HW124172   3.414   2.929   0.653 -0.7576  0.9825 -0.4017
 7577SOL    HW224173   3.360   3.000   0.775  2.0627  0.9930  0.9237
 7578SOL     OW24174   4.630   3.337   0.911 -0.1441  0.4539  0.1189
 7578SOL    HW124175   4.640   3.383   0.994 -2.2156 -1.1765  1.3821
 7578SOL    HW224176   4.719   3.309   0.889  0.6304  1.9764  1.1043
 7579SOL     OW24177   1.331   1.486   1.013  0.6592  0.4620 -0.5662
 7579SOL    HW124178   1.328   1.396   0.982  3.4477  0.0365  0.0840
 7579SOL    HW224179   1.424   1.501   1.034 -0.0714  2.6999  1.6301
 7580SOL     OW24180   5.101   3.244   0.144  0.0177 -0.1761 -0.3145
 7580SOL    HW124181   5.046   3.186   0.197  1.4877 -0.6424  0.7761
 7580SOL    HW224182   5.179   3.191   0.123  1.7304  1.5455  1.3156
 7581SOL     OW24183   5.628   3.358   2.079 -0.6935 -0.0270  0.1044
 7581SOL    HW124184   5.572   3.382   2.152 -1.3400  0.2573 -0.4738
 7581SOL    HW224185   5.715   3.388   2.104 -1.0070  0.5314  0.5386
 7582SOL     OW24186   2.576   1.776   0.025 -0.2875  0.2280  0.2004
 7582SOL    HW124187   2.519   1.716   0.073 -1.4258  1.5621  0.5877
 7582SOL    HW224188   2.517   1.842  -0.011  0.6871  0.0522 -1.9055
 7583SOL     OW24189   1.840   4.070  12.242 -0.1759  0.3421 -0.4509
 7583SOL    HW124190   1.872   4.022  12.319 -0.8076 -0.8946 -0.9449
 7583SOL    HW224191   1.913   4.128  12.219  0.8973 -0.8815 -0.2539
 7584SOL     OW24192   3.227   2.650   1.905 -0.0914 -0.9872  0.4363
 7584SOL    HW124193   3.242   2.587   1.834  0.6984 -0.5987  0.2500
 7584SOL    HW224194   3.143   2.624   1.942 -0.4732 -1.2598 -0.5782
 7585SOL     OW24195   3.331   3.448   1.290 -0.8446 -0.6952  0.3438
 7585SOL    HW124196   3.356   3.412   1.204  2.0793 -0.8012  1.1087
 7585SOL    HW224197   3.297   3.372   1.338 -0.2337 -1.1803  0.0334
 7586SOL     OW24198   4.883   2.792   0.118 -0.3423  0.2303  0.0982
 7586SOL    HW124199   4.800   2.756   0.149 -0.3364 -0.8680 -1.0726
 7586SOL    HW224200   4.868   2.813   0.026 -0.0708  2.4835  0.5061
 7587SOL     OW24201   2.638   3.829  11.643 -0.4909 -0.0658 -0.1553
 7587SOL    HW124202   2.649   3.850  11.735  0.0280 -0.7118 -0.0653
 7587SOL    HW224203   2.545   3.805  11.635 -0.5978  0.2385  0.1404
 7588SOL     OW24204   2.703   0.953   2.231 -0.3294  0.0633 -0.0795
 7588SOL    HW124205   2.627   1.010   2.229  0.1480  0.8047  1.2495
 7588SOL    HW224206   2.667   0.865   2.238 -1.0672  0.3467 -0.2707
 7589SOL     OW24207   2.072   4.062   2.078  0.2849  0.3802  0.5019
 7589SOL    HW124208   2.058   4.146   2.121  1.7380  1.2852 -0.6878
 7589SOL    HW224209   2.066   3.998   2.149 -1.1289  1.4299  1.3858
 7590SOL     OW24210   2.476   1.771   0.543  0.0625  0.6553  1.0661
 7590SOL    HW124211   2.417   1.840   0.511 -1.0089 -0.8779 -0.4061
 7590SOL    HW224212   2.553   1.819   0.574  0.5938  2.4457 -2.4823
 7591SOL     OW24213   2.789   2.623   2.409 -0.1091  0.1890 -0.1132
 7591SOL    HW124214   2.705   2.646   2.369  1.3033  0.7314 -2.9884
 7591SOL    HW224215   2.815   2.701   2.458 -1.7880 -0.4328  1.9694
 7592SOL     OW24216   2.829   3.776   0.724  0.1566  0.4405 -0.1483
 7592SOL    HW124217   2.833   3.681   0.714  2.1494  0.4450  0.0918
 7592SOL    HW224218   2.887   3.809   0.655  0.5149  1.3932  0.5905
 7593SOL     OW24219   2.774   3.515   0.672  0.3725 -0.4145  0.4583
 7593SOL    HW124220   2.694   3.560   0.699  1.0876  0.6549  0.8756
 7593SOL    HW224221   2.766   3.506   0.577  0.8622  2.0045  0.1284
 7594SOL     OW24222   1.895   2.880   1.553 -0.2741  0.0141  0.4153
 7594SOL    HW124223   1.953   2.931   1.611 -1.3840  2.7861 -0.7316
 7594SOL    HW224224   1.807   2.896   1.588 -0.6513 -1.5622  0.2579
 7595SOL     OW24225   3.042   3.719   1.879 -0.0654  0.1961 -0.1920
 7595SOL    HW124226   3.120   3.728   1.933 -0.4340  0.0849  0.3657
 7595SOL    HW224227   3.039   3.800   1.828 -0.4368  0.9009  0.9149
 7596SOL     OW24228   3.775   2.364   0.407 -0.0128  0.1630 -0.3515
 7596SOL    HW124229   3.691   2.387   0.446 -0.4086  1.5677 -1.9459
 7596SOL    HW224230   3.753   2.298   0.341  0.6627 -2.2713  1.6921
 7597SOL     OW24231   4.405   1.562   1.869  0.0946 -0.3135  0.3218
 7597SOL    HW124232   4.420   1.656   1.855  0.8461 -0.1912  1.7913
 7597SOL    HW224233   4.328   1.542   1.815  0.1250  1.0626 -0.2810
 7598SOL     OW24234   3.606   2.162   1.378 -0.3269 -0.4177  0.5724
 7598SOL    HW124235   3.669   2.185   1.310  0.0988 -0.6878  0.8722
 7598SOL    HW224236   3.521   2.160   1.333 -0.0074 -0.9120 -0.0206
 7599SOL     OW24237   2.296   3.787   1.327 -0.4119 -0.6901 -0.0963
 7599SOL    HW124238   2.383   3.747   1.334 -1.9379 -4.0880  2.1220
 7599SOL    HW224239   2.289   3.841   1.406  0.6036  2.0058 -1.7136
 7600SOL     OW24240   4.216   3.519   2.289 -0.4413 -0.3068 -0.5688
 7600SOL    HW124241   4.278   3.453   2.319 -1.5034 -0.7546  0.7648
 7600SOL    HW224242   4.249   3.548   2.204  2.3511  0.5084  0.6976
 7601SOL     OW24243   2.212   3.018   2.542  0.7223  0.2039 -0.1089
 7601SOL    HW124244   2.135   2.987   2.589 -0.4683  0.0836 -2.0263
 7601SOL    HW224245   2.276   2.947   2.551 -0.3115 -0.8159 -0.6061
 7602SOL     OW24246   3.007   3.363   2.669 -0.3522 -0.1358 -0.1573
 7602SOL    HW124247   3.053   3.418   2.606  1.9968 -0.2637  1.3092
 7602SOL    HW224248   2.927   3.411   2.690  0.3760  1.4337 -0.8704
 7603SOL     OW24249   3.364   2.215  12.338 -0.0201  0.1582  0.0756
 7603SOL    HW124250   3.275   2.235  12.364 -0.1836 -0.4401  0.0104
 7603SOL    HW224251   3.413   2.207  12.420  0.1066  1.0576  0.0896
 7604SOL     OW24252   2.732   1.231   0.183  0.9259 -0.0904  0.3414
 7604SOL    HW124253   2.671   1.213   0.111  0.3343 -0.1265  0.8392
 7604SOL    HW224254   2.804   1.169   0.169  1.2553  0.5049 -0.7200
 7605SOL     OW24255   2.872   3.902   0.040 -0.0333 -0.2017 -0.3387
 7605SOL    HW124256   2.949   3.946   0.004  0.2797 -0.4454  0.0300
 7605SOL    HW224257   2.855   3.830  -0.021  0.6304 -0.7502  0.1000
 7606SOL     OW24258   1.312   2.140   0.313  0.3188  0.0018  0.2922
 7606SOL    HW124259   1.364   2.100   0.243  0.3504  3.4940 -1.9064
 7606SOL    HW224260   1.373   2.201   0.356 -0.1155 -1.0239  2.5473
 7607SOL     OW24261   1.843   3.295   0.667  0.2010  0.2839  0.1936
 7607SOL    HW124262   1.822   3.327   0.754  0.0255  0.1254  0.2108
 7607SOL    HW224263   1.793   3.214   0.659  1.3746 -0.4989  0.5169
 7608SOL     OW24264   2.892   1.678   1.458 -0.4167  0.0700 -0.8087
 7608SOL    HW124265   2.831   1.704   1.527  0.6141  1.0180 -0.2126
 7608SOL    HW224266   2.837   1.637   1.391 -1.6582  0.6210 -0.1619
 7609SOL     OW24267   2.749   3.473   2.699  0.5676 -0.0693 -0.0312
 7609SOL    HW124268   2.744   3.568   2.705  1.7887  0.0412 -0.4749
 7609SOL    HW224269   2.659   3.445   2.681  0.1016  0.9423  0.6690
 7610SOL     OW24270   1.389   0.551   0.409 -0.0091 -0.2648  0.4117
 7610SOL    HW124271   1.469   0.601   0.395 -1.1421  1.3808 -0.4890
 7610SOL    HW224272   1.409   0.463   0.376  0.6548  0.7885 -2.2158
 7611SOL     OW24273   2.928   2.230   0.289 -0.0783  0.2640 -0.2908
 7611SOL    HW124274   3.008   2.281   0.281  0.2707  0.0214  1.3679
 7611SOL    HW224275   2.934   2.164   0.220  1.4139 -0.0909  0.1608
 7612SOL     OW24276   2.168   1.083   1.875 -0.2100  0.1490 -0.0253
 7612SOL    HW124277   2.132   1.048   1.957 -0.3231  0.7000  0.1609
 7612SOL    HW224278   2.103   1.147   1.846 -0.3217 -0.2605 -0.7123
 7613SOL     OW24279   3.960   6.432   1.910  0.4568  0.3068 -0.5387
 7613SOL    HW124280   3.963   6.493   1.984  0.9652 -0.1415 -0.1818
 7613SOL    HW224281   4.050   6.401   1.900 -0.0770 -1.7947  0.4968
 7614SOL     OW24282   3.930   5.324   1.832 -0.1097  0.1713  0.3897
 7614SOL    HW124283   3.844   5.306   1.793  0.3441  0.7207 -0.9348
 7614SOL    HW224284   3.911   5.355   1.920 -1.1871 -1.1396  0.6470
 7615SOL     OW24285   3.656   0.810  11.631 -0.1730  0.2042 -0.5373
 7615SOL    HW124286   3.629   0.902  11.640 -2.0913 -0.4141  0.8302
 7615SOL    HW224287   3.606   0.778  11.556  0.4216  0.2589 -0.9544
 7616SOL     OW24288   2.388   2.657   0.084 -0.4381  0.1199 -0.5619
 7616SOL    HW124289   2.338   2.736   0.068 -1.4552 -0.2961  0.4524
 7616SOL    HW224290   2.384   2.644   0.179 -0.7999 -1.4608 -0.7600
 7617SOL     OW24291   4.497   2.896  11.405 -0.6357  0.1270 -0.9399
 7617SOL    HW124292   4.578   2.920  11.450  0.4517  0.0900 -2.8063
 7617SOL    HW224293   4.480   2.806  11.434 -0.7484  0.5508  0.4200
 7618SOL     OW24294   1.384   2.544   1.230  0.0415  0.6924 -0.2974
 7618SOL    HW124295   1.472   2.572   1.206  0.0888  0.8964  0.1041
 7618SOL    HW224296   1.341   2.525   1.147  0.6221  0.1038 -0.4692
 7619SOL     OW24297   2.613   1.273   0.410 -0.5835  0.8327 -0.7488
 7619SOL    HW124298   2.652   1.250   0.326 -0.7814 -0.0757 -0.6061
 7619SOL    HW224299   2.611   1.369   0.411  0.7688  0.8799 -1.1556
 7620SOL     OW24300   1.660   2.496   0.416 -0.2297  0.0471 -0.1942
 7620SOL    HW124301   1.706   2.413   0.430 -1.9349 -0.8491  0.4454
 7620SOL    HW224302   1.676   2.518   0.324  0.5832 -0.7668 -0.2558
 7621SOL     OW24303   4.033   2.230   1.306  0.1117 -0.0312 -0.0854
 7621SOL    HW124304   3.940   2.209   1.293  0.1037 -1.2806  1.6056
 7621SOL    HW224305   4.032   2.312   1.356 -0.1739 -0.8481  1.3101
 7622SOL     OW24306   2.553   2.633   0.820  0.7343 -0.1678  0.1823
 7622SOL    HW124307   2.519   2.639   0.731  0.9806 -1.0254  0.0189
 7622SOL    HW224308   2.641   2.596   0.810  0.9404  0.1413  0.7496
 7623SOL     OW24309   1.712   2.622   0.160  0.1539 -0.1809 -0.7304
 7623SOL    HW124310   1.774   2.688   0.191  0.1448 -0.2275 -0.6125
 7623SOL    HW224311   1.753   2.586   0.081  0.2044 -0.1019 -0.7399
 7624SOL     OW24312   3.158   2.395   1.056 -0.1258 -0.0422 -0.2581
 7624SOL    HW124313   3.213   2.406   0.979 -0.6258  0.9721 -0.4931
 7624SOL    HW224314   3.070   2.382   1.020 -0.3658  0.4655  0.1222
 7625SOL     OW24315   2.999   2.730   0.794 -0.3504  0.6375 -0.1233
 7625SOL    HW124316   3.021   2.742   0.701 -1.3442 -1.3086 -0.6565
 7625SOL    HW224317   2.930   2.664   0.794  0.5851 -0.4427  2.0986
 7626SOL     OW24318   1.945   2.974   1.939  0.1709 -0.5719  0.4727
 7626SOL    HW124319   1.860   2.975   1.896 -0.1330  1.5301  1.0179
 7626SOL    HW224320   2.003   3.020   1.879  0.4039 -0.1272  1.0215
 7627SOL     OW24321   2.194   2.891   0.950 -0.5966  0.5493  0.2197
 7627SOL    HW124322   2.132   2.910   0.879  1.2711  1.6155 -1.2511
 7627SOL    HW224323   2.148   2.915   1.030 -2.9960 -1.2026 -0.5190
 7628SOL     OW24324   2.124   2.625   2.316 -0.4908  0.0338 -0.1507
 7628SOL    HW124325   2.102   2.643   2.407  1.3407  0.5303  0.2274
 7628SOL    HW224326   2.175   2.700   2.288 -0.1101 -0.6184 -1.2607
 7629SOL     OW24327   4.165   2.934   2.439  0.1420  0.4848 -0.4308
 7629SOL    HW124328   4.118   2.886   2.508  0.1913  0.6081 -0.3126
 7629SOL    HW224329   4.208   3.006   2.484 -1.9461  2.1470 -0.9334
 7630SOL     OW24330   0.638   2.705   2.128 -0.3533 -0.0738  0.3657
 7630SOL    HW124331   0.658   2.647   2.055  3.0930  0.4307  0.7278
 7630SOL    HW224332   0.636   2.648   2.205 -0.6668 -0.1551  0.3014
 7631SOL     OW24333   2.442   2.101   1.672 -0.7983  0.3659  0.6132
 7631SOL    HW124334   2.480   2.132   1.754  1.9248  1.2286 -0.8470
 7631SOL    HW224335   2.398   2.177   1.636 -0.5162  0.4758  0.4956
 7632SOL     OW24336   2.702   4.256   1.477 -0.0967  0.5208  0.9115
 7632SOL    HW124337   2.776   4.316   1.477  0.4744 -0.1726  0.8446
 7632SOL    HW224338   2.642   4.291   1.543  0.0526  1.3571  0.6196
 7633SOL     OW24339   2.806   3.766   1.338 -0.0616 -0.4445  0.1915
 7633SOL    HW124340   2.833   3.680   1.306  0.0767 -0.6298  0.7911
 7633SOL    HW224341   2.792   3.818   1.259  0.8662 -0.7072 -0.1601
 7634SOL     OW24342   3.010   5.227   1.063 -0.3000  0.4338 -0.1115
 7634SOL    HW124343   3.031   5.320   1.058  0.0721  0.3982  0.6083
 7634SOL    HW224344   2.926   5.223   1.109 -0.2678  0.4152 -0.0533
 7635SOL     OW24345   3.471   1.436  11.882  0.1301  0.0508  0.5534
 7635SOL    HW124346   3.424   1.384  11.816 -0.1514 -1.1814  1.6724
 7635SOL    HW224347   3.511   1.508  11.832 -2.2599  0.7094 -0.5839
 7636SOL     OW24348   5.041   3.963   0.884 -0.4540 -0.2049 -0.0079
 7636SOL    HW124349   5.069   3.890   0.939  0.3526 -1.6502 -2.2365
 7636SOL    HW224350   4.945   3.953   0.879 -0.5007 -0.2590  0.8076
 7637SOL     OW24351   4.035   3.883   0.261  0.5497 -0.5737 -0.1063
 7637SOL    HW124352   4.022   3.871   0.167  2.0021 -0.3031 -0.3551
 7637SOL    HW224353   4.103   3.821   0.284  0.3163 -0.5256  0.7517
 7638SOL     OW24354   4.798   1.854   1.237  0.8731 -0.2965  0.0694
 7638SOL    HW124355   4.707   1.826   1.222  1.3433 -1.3964 -0.9475
 7638SOL    HW224356   4.797   1.948   1.221  0.2767 -0.5889 -1.9270
 7639SOL     OW24357   1.114   3.020   0.832 -0.2807  0.1886 -0.2406
 7639SOL    HW124358   1.072   2.984   0.753  0.5415 -0.8432 -0.2257
 7639SOL    HW224359   1.142   3.107   0.806  2.5148 -1.1118 -2.0699
 7640SOL     OW24360   2.445   1.818   1.830  0.4976  0.1118  0.4328
 7640SOL    HW124361   2.519   1.862   1.871 -0.0347  1.0858  0.3873
 7640SOL    HW224362   2.376   1.820   1.897 -0.1993  1.2225 -0.2775
 7641SOL     OW24363   3.177   2.358   0.685  0.3668  0.0865 -0.2336
 7641SOL    HW124364   3.229   2.401   0.753 -0.2244  0.3344  0.0731
 7641SOL    HW224365   3.101   2.323   0.732  0.5917 -0.8646 -0.5661
 7642SOL     OW24366   2.971   2.367   1.767  0.2811  0.1112 -0.2531
 7642SOL    HW124367   2.902   2.418   1.726 -0.7792 -0.1437  1.1216
 7642SOL    HW224368   2.989   2.414   1.849  0.3612 -0.8587  0.3043
 7643SOL     OW24369   3.622   3.755   0.805 -0.2904  0.5408 -0.5204
 7643SOL    HW124370   3.705   3.721   0.840 -0.5136  0.8711  0.3432
 7643SOL    HW224371   3.643   3.844   0.776 -0.4791  0.8323  0.2342
 7644SOL     OW24372   4.567   4.176   1.211 -0.8627 -0.6821 -0.1862
 7644SOL    HW124373   4.546   4.091   1.173  0.6744 -1.3003  0.2903
 7644SOL    HW224374   4.620   4.220   1.145  0.1857 -0.9843  0.4367
 7645SOL     OW24375   3.365   3.381   0.990  0.0544 -0.0437  0.3201
 7645SOL    HW124376   3.270   3.396   0.985 -0.2383 -1.3187  1.5726
 7645SOL    HW224377   3.403   3.455   0.942 -1.5205  1.2510  0.9643
 7646SOL     OW24378   4.511   3.502  12.149 -0.5212  0.4365 -0.1744
 7646SOL    HW124379   4.594   3.545  12.169  0.1234 -1.3639  1.3031
 7646SOL    HW224380   4.447   3.573  12.150  1.0841  2.0575 -2.4868
 7647SOL     OW24381   2.513   4.458   1.153  0.4868 -0.1636 -0.3514
 7647SOL    HW124382   2.446   4.471   1.220 -1.0650  0.0698 -1.8752
 7647SOL    HW224383   2.544   4.368   1.167  0.6268  0.0774  1.0091
 7648SOL     OW24384   3.774   2.992   1.358  0.1681  0.0920  0.0920
 7648SOL    HW124385   3.787   2.991   1.263  0.6175 -0.7903  0.1507
 7648SOL    HW224386   3.694   3.042   1.371  2.0913  3.6662 -0.4748
 7649SOL     OW24387   1.875   2.729   0.804 -0.2358  0.2647  0.1349
 7649SOL    HW124388   1.933   2.657   0.828  0.1626  0.5136 -0.0650
 7649SOL    HW224389   1.801   2.722   0.865  0.4018  0.4412  0.9397
 7650SOL     OW24390   4.115   4.111   0.600  0.4086 -0.6027  0.4087
 7650SOL    HW124391   4.037   4.065   0.630 -1.6532  0.8063 -2.3688
 7650SOL    HW224392   4.101   4.202   0.626  0.9440 -0.2797 -0.3788
 7651SOL     OW24393   2.899   1.137   1.278 -0.3572 -0.1175  0.4750
 7651SOL    HW124394   2.929   1.080   1.208 -0.0740  1.4855 -0.7735
 7651SOL    HW224395   2.966   1.128   1.346 -0.3959 -1.3487  0.3670
 7652SOL     OW24396   0.970   3.390  11.622  0.1295 -0.5464  0.1537
 7652SOL    HW124397   1.052   3.341  11.615  0.4723  0.1073 -0.7582
 7652SOL    HW224398   0.982   3.463  11.561 -0.8439 -0.0282  0.5727
 7653SOL     OW24399   4.669   2.810  12.082 -0.0729  0.6291  0.5245
 7653SOL    HW124400   4.662   2.887  12.138  0.0668 -0.6081  2.3306
 7653SOL    HW224401   4.652   2.843  11.994  1.8559  3.0640  0.9557
 7654SOL     OW24402   2.359   2.914   1.662  0.4086  0.3407  0.0222
 7654SOL    HW124403   2.427   2.874   1.716  0.8920  0.8984 -0.1711
 7654SOL    HW224404   2.323   2.984   1.717  0.7548  0.7700 -0.2911
 7655SOL     OW24405   1.401   3.732   1.768  0.2749 -0.4813  0.3921
 7655SOL    HW124406   1.396   3.723   1.863  3.2214  2.8062  1.0750
 7655SOL    HW224407   1.461   3.663   1.740 -0.0959 -1.0508  0.9878
 7656SOL     OW24408   3.271   1.441   0.497  0.0775  0.0250 -0.3800
 7656SOL    HW124409   3.345   1.389   0.465 -0.1884  0.0317 -1.0159
 7656SOL    HW224410   3.196   1.382   0.491 -0.5351  0.9470 -2.6364
 7657SOL     OW24411   1.990   1.890   0.947 -0.0914  0.3388 -0.1461
 7657SOL    HW124412   1.939   1.971   0.956  0.5663  0.8111 -0.5591
 7657SOL    HW224413   1.965   1.837   1.022 -0.3858  1.0110  0.2381
 7658SOL     OW24414   2.335   4.210  11.092  0.5296 -0.7254 -0.3685
 7658SOL    HW124415   2.390   4.247  11.023  2.0177  0.0279  1.1319
 7658SOL    HW224416   2.327   4.117  11.070 -0.8592 -0.1410 -2.6606
 7659SOL     OW24417   4.493   4.197   2.057  0.0755 -0.7052 -0.3252
 7659SOL    HW124418   4.520   4.140   1.985  0.2201 -0.6150 -0.3429
 7659SOL    HW224419   4.438   4.142   2.112  0.0742 -0.8123 -0.4333
 7660SOL     OW24420   1.331   1.257  10.742  0.2135 -0.7020  0.1065
 7660SOL    HW124421   1.413   1.274  10.788 -0.2133  0.2301  0.5329
 7660SOL    HW224422   1.349   1.280  10.651  0.9498 -2.2076 -0.1731
 7661SOL     OW24423   1.068   2.585   1.341 -0.0782 -0.4030 -0.1392
 7661SOL    HW124424   1.083   2.619   1.252 -0.2659  0.9266  0.3205
 7661SOL    HW224425   1.015   2.652   1.384  0.1977 -0.9247  1.0553
 7662SOL     OW24426   1.979   0.708   2.705 -0.5288 -0.0997  0.0338
 7662SOL    HW124427   1.894   0.665   2.691  0.0005 -0.8608 -0.9920
 7662SOL    HW224428   2.033   0.677   2.632  0.5720  0.5334  0.5687
 7663SOL     OW24429   5.550   2.490   1.607  0.0005  0.0627  0.3529
 7663SOL    HW124430   5.454   2.489   1.609 -0.0119 -0.3255 -0.1795
 7663SOL    HW224431   5.576   2.405   1.643  0.2171  1.0130  2.6186
 7664SOL     OW24432   1.595   1.403   0.594 -0.1244 -0.3766 -0.0656
 7664SOL    HW124433   1.671   1.413   0.536 -1.0435  2.4303 -0.9667
 7664SOL    HW224434   1.574   1.493   0.621 -3.4665 -0.9500 -0.3487
 7665SOL     OW24435   2.209   3.367   0.790 -0.1102 -0.1422  0.2004
 7665SOL    HW124436   2.256   3.446   0.819 -1.1029  0.9582 -1.0442
 7665SOL    HW224437   2.194   3.318   0.871  0.8273  0.7699  0.9733
 7666SOL     OW24438   2.595   3.939   0.764  0.5624 -0.7644  0.8418
 7666SOL    HW124439   2.615   4.021   0.809 -0.0543 -0.7741  1.1396
 7666SOL    HW224440   2.676   3.889   0.768  1.0365 -0.0522  0.3966
 7667SOL     OW24441   1.340   4.752  11.950  0.1261 -0.3235  0.4660
 7667SOL    HW124442   1.337   4.813  12.024 -0.0267  0.1655  0.0579
 7667SOL    HW224443   1.393   4.797  11.884 -0.3769 -0.4293 -0.0146
 7668SOL     OW24444   0.604   2.520   3.313  0.3227 -0.2303 -0.7028
 7668SOL    HW124445   0.691   2.488   3.336 -0.3546 -2.0637 -0.5577
 7668SOL    HW224446   0.572   2.459   3.246 -1.1530 -0.0824 -0.1747
 7669SOL     OW24447   2.824   2.928   2.790  0.0771  0.2824  0.3705
 7669SOL    HW124448   2.844   2.858   2.853  1.6582  0.7295  0.4252
 7669SOL    HW224449   2.731   2.945   2.801 -0.4484 -2.1004  0.0397
 7670SOL     OW24450   3.503   4.220   1.622 -0.4824 -0.2692  0.1175
 7670SOL    HW124451   3.518   4.306   1.661  2.0473 -0.1766 -0.8860
 7670SOL    HW224452   3.532   4.157   1.689 -0.6079 -0.2845  0.1583
 7671SOL     OW24453   3.693   3.852   2.297  0.0141 -0.3362 -0.1450
 7671SOL    HW124454   3.660   3.852   2.208  1.4373 -0.5436 -0.7121
 7671SOL    HW224455   3.761   3.784   2.297  0.3594 -0.0158  0.9593
 7672SOL     OW24456   5.312   2.684   1.365 -0.0300  0.1129  0.6320
 7672SOL    HW124457   5.244   2.733   1.319  1.2209 -0.2816 -1.7591
 7672SOL    HW224458   5.267   2.608   1.402 -1.1257  0.5865  0.3020
 7673SOL     OW24459   2.509   2.612   0.338  0.1734  0.6026 -0.2567
 7673SOL    HW124460   2.589   2.664   0.347  0.3465  0.0333  2.5103
 7673SOL    HW224461   2.439   2.670   0.367  0.1619 -0.1431  1.3032
 7674SOL     OW24462   3.682   1.895   1.520 -0.4445  0.5162 -0.6736
 7674SOL    HW124463   3.711   1.981   1.493  1.1421  2.0471  4.7308
 7674SOL    HW224464   3.760   1.840   1.517 -0.2179  0.7363  0.6206
 7675SOL     OW24465   3.035   2.766   0.518  0.1582  0.1162 -0.2717
 7675SOL    HW124466   3.004   2.691   0.467  0.4453  0.1424 -0.4842
 7675SOL    HW224467   3.126   2.777   0.493  0.0791  0.6278 -0.3498
 7676SOL     OW24468   2.649   4.041  11.010 -0.4097  0.6226 -0.7900
 7676SOL    HW124469   2.574   3.986  10.989  0.0889 -1.7583  2.7965
 7676SOL    HW224470   2.642   4.056  11.105  2.7711  1.6190 -0.5985
 7677SOL     OW24471   3.630   3.792   0.353  0.2706  0.4772  0.0896
 7677SOL    HW124472   3.705   3.833   0.396  3.4120 -1.9541 -2.5503
 7677SOL    HW224473   3.554   3.837   0.389  2.8803  2.4778  3.6937
 7678SOL     OW24474   3.459   2.662   0.790 -0.3953 -0.0154  0.3279
 7678SOL    HW124475   3.553   2.677   0.781 -0.1624 -1.7196 -0.5057
 7678SOL    HW224476   3.418   2.744   0.763  0.8228  0.5038  0.0024
 7679SOL     OW24477   4.424   3.950  12.292  0.4382 -0.5021  0.2083
 7679SOL    HW124478   4.336   3.985  12.305 -0.2307 -0.2061 -3.6677
 7679SOL    HW224479   4.480   4.004  12.348 -1.3487  2.6692 -0.7700
 7680SOL     OW24480   5.855   4.123   0.451 -0.1470  0.4338 -0.3708
 7680SOL    HW124481   5.901   4.103   0.369  1.2336  0.4644  0.3682
 7680SOL    HW224482   5.858   4.040   0.500  0.3263  0.7952  0.2288
 7681SOL     OW24483   0.292   3.971   2.804 -0.0428  0.0856  0.1105
 7681SOL    HW124484   0.238   3.894   2.787  0.1611 -0.1203  0.3817
 7681SOL    HW224485   0.382   3.938   2.802  0.0730  0.4222 -0.3117
 7682SOL     OW24486   1.442   3.441   0.440  0.0447 -0.3912 -0.1594
 7682SOL    HW124487   1.479   3.421   0.354 -1.0547 -0.8033 -0.5496
 7682SOL    HW224488   1.437   3.537   0.442 -0.7578 -0.4076 -0.9203
 7683SOL     OW24489   1.000   3.014   1.116  0.0713 -0.0390  0.2681
 7683SOL    HW124490   0.910   3.034   1.091  0.0469  0.1817  0.5225
 7683SOL    HW224491   1.046   3.002   1.033  0.1481  1.3650  0.0798
 7684SOL     OW24492   2.534   7.655   1.161 -0.3306  0.0962 -0.2225
 7684SOL    HW124493   2.479   7.587   1.121  0.3377 -1.4094  1.2940
 7684SOL    HW224494   2.491   7.737   1.139 -0.9607 -0.7579 -2.4684
 7685SOL     OW24495   1.424   3.842  12.167  0.1944 -0.5308  0.6647
 7685SOL    HW124496   1.420   3.918  12.109  0.1961  0.1817  1.5672
 7685SOL    HW224497   1.513   3.807  12.154  1.1037  1.1249  2.0459
 7686SOL     OW24498   3.608   2.437  12.440 -0.1698  0.1016  0.5967
 7686SOL    HW124499   3.651   2.494  12.376 -0.1783  0.5880  1.0263
 7686SOL    HW224500   3.679   2.382  12.474 -0.4676 -1.6272 -1.3186
 7687SOL     OW24501   4.038   2.509   0.399  0.4076  0.0837 -0.6995
 7687SOL    HW124502   4.096   2.504   0.323 -0.1453 -0.0579 -1.1232
 7687SOL    HW224503   3.966   2.449   0.378  0.9682 -1.1009  0.5844
 7688SOL     OW24504   2.308   3.519   0.237  0.4616  0.0742 -0.5863
 7688SOL    HW124505   2.275   3.474   0.159  0.2260 -0.0467 -0.4203
 7688SOL    HW224506   2.399   3.492   0.245  0.3120 -0.4079 -0.4677
 7689SOL     OW24507   2.638   1.675   0.991 -0.1021  0.0824 -0.2606
 7689SOL    HW124508   2.733   1.666   1.001  0.1721  2.6860  0.1388
 7689SOL    HW224509   2.627   1.755   0.941 -2.1110 -0.3588 -0.5942
 7690SOL     OW24510   3.818   2.017   2.342 -0.2749  0.2117 -0.2706
 7690SOL    HW124511   3.732   2.028   2.382 -0.0823 -0.0945  0.2328
 7690SOL    HW224512   3.800   2.009   2.248 -0.8740 -0.7853 -0.0856
 7691SOL     OW24513   4.571   2.211   0.060  0.1283 -0.0191 -0.5021
 7691SOL    HW124514   4.520   2.140   0.021  1.1259 -1.7055  1.1219
 7691SOL    HW224515   4.662   2.186   0.044  0.5133  1.7782 -1.3498
 7692SOL     OW24516   3.379   4.424   0.464  0.2765  0.6010 -0.2762
 7692SOL    HW124517   3.312   4.484   0.429 -0.5988 -0.1562  0.0627
 7692SOL    HW224518   3.408   4.373   0.388 -1.3049 -0.7382 -0.0350
 7693SOL     OW24519   1.364   2.478  11.851  0.7700  0.5823  0.3000
 7693SOL    HW124520   1.350   2.502  11.759 -0.9193 -2.0355 -0.2429
 7693SOL    HW224521   1.310   2.539  11.900 -0.7167  0.1633 -0.7345
 7694SOL     OW24522   2.927   2.087   0.546  0.2228 -0.0595  0.4293
 7694SOL    HW124523   2.906   2.147   0.617 -2.6067  0.0966 -0.4490
 7694SOL    HW224524   2.919   2.139   0.466 -0.3976 -1.1092 -0.2277
 7695SOL     OW24525   3.248   3.113   0.827 -0.3450  0.7503 -0.1354
 7695SOL    HW124526   3.257   3.194   0.878 -2.1499  0.9544 -0.0634
 7695SOL    HW224527   3.207   3.052   0.888  2.0862 -0.6761  0.2029
 7696SOL     OW24528   1.771   2.674   2.250  0.2042 -0.3988 -0.4122
 7696SOL    HW124529   1.810   2.761   2.243  0.5393 -0.4169  1.0103
 7696SOL    HW224530   1.730   2.672   2.336 -1.6377 -0.9394 -1.2593
 7697SOL     OW24531   2.681   4.012   0.230 -0.3995  0.1133 -0.4963
 7697SOL    HW124532   2.739   3.981   0.160  1.1651  1.3852  0.1508
 7697SOL    HW224533   2.647   4.096   0.197  0.8057  1.0078  0.4466
 7698SOL     OW24534   1.856   2.702   3.143 -0.2905 -0.5656 -0.3901
 7698SOL    HW124535   1.832   2.670   3.056 -2.4318  0.4770 -0.2534
 7698SOL    HW224536   1.792   2.771   3.162  1.0710  0.3199  1.3826
 7699SOL     OW24537   2.275   2.109   2.672  0.0628  0.4316 -0.3853
 7699SOL    HW124538   2.253   2.199   2.696  2.1598  0.6936  0.8396
 7699SOL    HW224539   2.308   2.071   2.753  0.1705 -1.1269 -1.1373
 7700SOL     OW24540   2.328   3.503   3.223 -0.0621 -0.6250  0.1353
 7700SOL    HW124541   2.350   3.572   3.286 -0.3919 -0.9867  0.6574
 7700SOL    HW224542   2.245   3.532   3.185 -0.5889 -1.0866  0.9006
 7701SOL     OW24543   0.974   5.143   2.954 -0.0141 -0.1525 -0.1522
 7701SOL    HW124544   1.058   5.150   2.909  0.5603  2.1613  1.1273
 7701SOL    HW224545   0.926   5.075   2.906  1.6794  0.1169 -2.3633
 7702SOL     OW24546   3.092   5.366   2.693 -0.0723 -0.2106  0.0794
 7702SOL    HW124547   3.147   5.295   2.660  0.3021 -0.1025  0.4560
 7702SOL    HW224548   3.012   5.323   2.722  0.1481 -0.4811  0.2946
 7703SOL     OW24549   1.617   3.743   2.078  0.1145 -0.3053  0.3025
 7703SOL    HW124550   1.587   3.735   1.988 -0.3661  1.6979  0.2299
 7703SOL    HW224551   1.693   3.801   2.073  1.1943 -1.6032  1.0184
 7704SOL     OW24552   4.709   2.794   1.401  0.3584 -0.1489  0.4526
 7704SOL    HW124553   4.679   2.713   1.442 -1.5021 -0.9299 -2.1667
 7704SOL    HW224554   4.657   2.863   1.441 -2.9219 -1.1191 -1.6992
 7705SOL     OW24555   1.791   3.292   3.132  0.1206  0.3931 -0.0413
 7705SOL    HW124556   1.699   3.315   3.144  0.3112 -0.1118  3.6245
 7705SOL    HW224557   1.811   3.318   3.043 -3.7795 -0.2647 -1.3222
 7706SOL     OW24558   1.256   2.660   4.046 -0.1537  0.1746  0.9197
 7706SOL    HW124559   1.300   2.612   4.116  0.0856 -2.5566 -0.9625
 7706SOL    HW224560   1.188   2.601   4.015 -1.0919  1.8328 -0.3410
 7707SOL     OW24561   2.569   2.795   3.136  0.0339  0.0882  0.2399
 7707SOL    HW124562   2.648   2.845   3.154 -0.4491  0.6549  0.8866
 7707SOL    HW224563   2.499   2.847   3.177 -0.3468 -1.7085  2.0569
 7708SOL     OW24564   3.378   2.346   5.721  0.0799 -0.1158 -0.0560
 7708SOL    HW124565   3.335   2.415   5.670  0.5254  0.5493  0.4417
 7708SOL    HW224566   3.365   2.266   5.671 -1.1124  0.1983 -0.2704
 7709SOL     OW24567   1.712   1.447   2.788 -0.0247  0.1986 -0.5064
 7709SOL    HW124568   1.795   1.406   2.765  0.0891  0.0258  0.2109
 7709SOL    HW224569   1.732   1.501   2.864 -0.1089  1.8334 -1.6020
 7710SOL     OW24570   3.795   2.481   3.940  0.2492 -0.6083 -0.0257
 7710SOL    HW124571   3.796   2.401   3.888 -1.9700  0.2157 -1.5183
 7710SOL    HW224572   3.845   2.544   3.888  0.1737 -0.4773  0.0583
 7711SOL     OW24573   3.813   1.756   5.005 -0.0004  0.3679  0.1439
 7711SOL    HW124574   3.762   1.837   5.008  0.0876  0.4239  0.1488
 7711SOL    HW224575   3.893   1.776   5.054 -0.0115  0.2548  0.2088
 7712SOL     OW24576   2.776   3.553   3.103  0.0037 -0.0122 -0.4065
 7712SOL    HW124577   2.776   3.468   3.148  0.1772  0.1669 -0.0658
 7712SOL    HW224578   2.867   3.582   3.109 -0.3717  0.9670  0.9383
 7713SOL     OW24579   3.374   2.436   3.370  0.5768 -0.5169  0.0011
 7713SOL    HW124580   3.386   2.449   3.464 -1.3490  1.4602  0.0590
 7713SOL    HW224581   3.303   2.496   3.346 -0.5348 -2.5456 -2.3142
 7714SOL     OW24582   3.059   3.043   3.420 -0.2723  0.3079  0.0212
 7714SOL    HW124583   3.077   3.093   3.500  2.0565 -0.9627  0.3863
 7714SOL    HW224584   3.102   3.095   3.351 -0.7864  0.5232 -0.1383
 7715SOL     OW24585   1.241   2.705   3.298 -0.2719 -0.0249 -0.2152
 7715SOL    HW124586   1.279   2.722   3.212  0.0538 -1.5225 -0.3988
 7715SOL    HW224587   1.270   2.778   3.352  2.0410 -0.5636 -0.6291
 7716SOL     OW24588   0.726   2.941   2.607 -0.1935 -0.8126  0.2342
 7716SOL    HW124589   0.637   2.968   2.587 -0.3799 -0.5062  1.3986
 7716SOL    HW224590   0.733   2.948   2.702  1.0978 -0.7446  0.1611
 7717SOL     OW24591   0.141   3.960   2.195  0.2117  0.0008  0.2088
 7717SOL    HW124592   0.069   3.915   2.151  2.0929 -1.4831 -1.5616
 7717SOL    HW224593   0.113   3.967   2.287 -1.8378 -1.1639 -0.2749
 7718SOL     OW24594   2.308   2.815   2.191  0.3029  0.4326  0.0402
 7718SOL    HW124595   2.281   2.753   2.123 -0.8626  0.2131  0.6797
 7718SOL    HW224596   2.327   2.896   2.143 -2.7708  1.0219 -0.4112
 7719SOL     OW24597   3.177   2.142   3.695  0.3554 -0.1289  0.3963
 7719SOL    HW124598   3.184   2.221   3.748  0.7673  0.0093  0.1427
 7719SOL    HW224599   3.249   2.087   3.725  0.9196  0.1688 -0.3717
 7720SOL     OW24600   3.089   1.963   2.464 -0.1691  0.2752 -0.6988
 7720SOL    HW124601   3.038   1.976   2.384  0.9778  0.9099 -1.3667
 7720SOL    HW224602   3.079   2.044   2.513 -0.8993 -0.1270 -0.1599
 7721SOL     OW24603   3.194   5.760   1.728 -0.5240  0.3655 -0.3002
 7721SOL    HW124604   3.169   5.839   1.777 -0.9969  0.4341 -0.6458
 7721SOL    HW224605   3.130   5.695   1.755 -1.3977  0.6746 -1.5526
 7722SOL     OW24606   1.389   3.328   2.023  0.2522  0.1942  0.3556
 7722SOL    HW124607   1.376   3.234   2.028 -2.5166  0.4876  0.1236
 7722SOL    HW224608   1.428   3.343   1.937  3.3006 -0.8742  1.4173
 7723SOL     OW24609   3.898   2.997   3.081  0.0250 -0.2463 -0.0397
 7723SOL    HW124610   3.922   3.043   3.161  1.9012 -3.4085  1.3697
 7723SOL    HW224611   3.917   3.060   3.011 -0.3223  2.1055  1.8419
 7724SOL     OW24612   3.026   3.648   3.102  0.4359 -0.9190  0.3222
 7724SOL    HW124613   3.096   3.583   3.096 -0.3520 -1.8146  0.4690
 7724SOL    HW224614   3.070   3.732   3.102  1.5192 -1.4749  0.5815
 7725SOL     OW24615   2.579   3.071   3.498  0.3956 -0.0557  0.2350
 7725SOL    HW124616   2.664   3.038   3.529  0.8820  1.5589  0.7229
 7725SOL    HW224617   2.515   3.012   3.538  1.2447 -0.7260  0.6523
 7726SOL     OW24618   1.709   2.912   1.767 -0.3222 -0.1163  0.3269
 7726SOL    HW124619   1.619   2.927   1.738 -0.0140 -0.5293 -0.9187
 7726SOL    HW224620   1.701   2.863   1.849 -1.2240  0.3326  0.5179
 7727SOL     OW24621   2.367   3.278   3.474  0.2774 -0.0289  0.0538
 7727SOL    HW124622   2.448   3.244   3.437  0.3723 -0.6876  0.8579
 7727SOL    HW224623   2.300   3.217   3.444 -0.2481  1.4946 -2.1343
 7728SOL     OW24624   2.434   2.751   2.820 -0.3873 -0.2639 -0.2184
 7728SOL    HW124625   2.529   2.743   2.810 -0.3794 -0.1652 -0.2204
 7728SOL    HW224626   2.402   2.777   2.733 -0.1996  1.6874  0.2453
 7729SOL     OW24627   1.994   0.943   3.327  0.0501 -0.1897  0.3427
 7729SOL    HW124628   2.022   0.853   3.342  0.8139 -0.0628 -0.2604
 7729SOL    HW224629   1.913   0.951   3.376 -0.0303 -1.2073  0.4022
 7730SOL     OW24630   2.174   3.760   1.838 -0.4680  0.6845 -0.3577
 7730SOL    HW124631   2.245   3.797   1.890 -1.6061 -0.3803  2.1140
 7730SOL    HW224632   2.182   3.665   1.850 -3.0691  0.5734  1.1567
 7731SOL     OW24633   2.803   2.171   2.429  0.4798 -0.3082 -0.5984
 7731SOL    HW124634   2.815   2.181   2.524  1.5134 -1.2701 -0.6132
 7731SOL    HW224635   2.722   2.218   2.411  0.0624 -0.4214  0.8291
 7732SOL     OW24636   3.232   4.035   2.298  0.2808  0.4342 -0.7804
 7732SOL    HW124637   3.232   4.000   2.209  0.4755 -0.2614 -0.5079
 7732SOL    HW224638   3.150   4.085   2.304  0.1313  0.2470 -1.2537
 7733SOL     OW24639   2.550   3.353   2.211  0.1810  0.2197 -0.1258
 7733SOL    HW124640   2.501   3.287   2.260  1.0725  1.3074  2.3606
 7733SOL    HW224641   2.608   3.302   2.154 -1.3255 -1.0833 -0.5419
 7734SOL     OW24642   3.059   1.295   1.692  0.6346 -0.3682  0.3974
 7734SOL    HW124643   3.076   1.367   1.632  1.9219  0.0061  1.1805
 7734SOL    HW224644   3.145   1.261   1.715  0.2839  0.1087  2.7206
 7735SOL     OW24645   2.810   1.213   1.612 -0.6234  0.6595  0.0780
 7735SOL    HW124646   2.888   1.259   1.643 -1.2647  0.5170  2.0465
 7735SOL    HW224647   2.806   1.133   1.664 -0.7344 -0.6055 -1.7675
 7736SOL     OW24648   3.269   3.000   2.149  0.1298 -0.1055 -0.1490
 7736SOL    HW124649   3.179   2.971   2.137 -0.2250  1.0901 -0.4040
 7736SOL    HW224650   3.270   3.042   2.235  0.6758 -0.9618  0.2780
 7737SOL     OW24651   2.254   2.465   3.438  0.3672  0.1074  0.0898
 7737SOL    HW124652   2.271   2.439   3.347 -4.3757 -0.3581 -0.9747
 7737SOL    HW224653   2.236   2.559   3.433 -0.6469 -0.0571  0.3096
 7738SOL     OW24654   3.188   2.615   3.314  0.0211  0.5750 -0.3749
 7738SOL    HW124655   3.100   2.584   3.292 -0.8071  0.6822  2.4372
 7738SOL    HW224656   3.223   2.648   3.231 -2.6247  0.6574 -1.5577
 7739SOL     OW24657   4.132   3.001   5.237 -0.1099  0.1199  0.2266
 7739SOL    HW124658   4.051   3.041   5.268 -0.5094  0.2704 -0.9721
 7739SOL    HW224659   4.182   3.073   5.200  0.6461  0.0498  1.0702
 7740SOL     OW24660   2.314   3.471   4.357 -0.8118 -0.1142  0.4408
 7740SOL    HW124661   2.361   3.552   4.375  0.2085 -0.7312  0.6241
 7740SOL    HW224662   2.282   3.481   4.267  0.4573 -0.0461 -0.0151
 7741SOL     OW24663   1.403   3.270   2.899  0.7459  0.2560 -0.0948
 7741SOL    HW124664   1.446   3.315   2.972  2.2153  1.4359 -1.5932
 7741SOL    HW224665   1.373   3.341   2.842 -0.0839 -0.6355 -0.7916
 7742SOL     OW24666   1.190   5.542   3.382  0.1848 -0.0915 -0.0469
 7742SOL    HW124667   1.128   5.614   3.390  0.7896  0.8520 -2.7303
 7742SOL    HW224668   1.150   5.470   3.431 -2.8619  0.5969 -1.2816
 7743SOL     OW24669   3.491   0.422   2.435 -0.0778 -0.2719  0.7609
 7743SOL    HW124670   3.497   0.467   2.519 -2.8943  1.5000  0.1586
 7743SOL    HW224671   3.432   0.348   2.451 -1.4593  0.6703  0.1831
 7744SOL     OW24672   3.094   1.244   3.760 -0.1662 -0.0634  0.0322
 7744SOL    HW124673   3.065   1.210   3.844 -2.1312  0.9877 -0.1421
 7744SOL    HW224674   3.130   1.331   3.780 -1.3387  0.5141 -0.2467
 7745SOL     OW24675   2.405   3.507   2.759  0.0229  0.0079 -0.4556
 7745SOL    HW124676   2.415   3.419   2.794 -2.0133  0.1989  0.7340
 7745SOL    HW224677   2.449   3.564   2.822 -1.5164  0.1162  0.5656
 7746SOL     OW24678   1.949   2.369   3.662 -0.7820  0.2853 -0.0587
 7746SOL    HW124679   1.940   2.458   3.627  0.1907  0.1991 -0.5785
 7746SOL    HW224680   1.942   2.380   3.757 -0.2569  0.9897 -0.0897
 7747SOL     OW24681   4.008   2.748   4.260 -0.1904  0.5771  0.0694
 7747SOL    HW124682   3.921   2.787   4.251  0.2417  1.2701 -1.4564
 7747SOL    HW224683   4.034   2.767   4.350 -1.8673 -0.2256  0.7565
 7748SOL     OW24684   1.892   4.803   4.325 -0.2912  0.2417  0.1156
 7748SOL    HW124685   1.890   4.899   4.333 -0.0978  0.2750 -0.2304
 7748SOL    HW224686   1.854   4.786   4.239  2.5861  0.1945 -1.2515
 7749SOL     OW24687   3.894   3.785   1.568 -0.1377 -0.0169 -0.1512
 7749SOL    HW124688   3.939   3.712   1.525  1.9329  1.2550 -0.2833
 7749SOL    HW224689   3.825   3.810   1.506 -0.2039 -1.1523 -0.5729
 7750SOL     OW24690   4.231   2.239   4.257 -0.2700 -0.1639  0.0328
 7750SOL    HW124691   4.319   2.233   4.219  0.0309 -0.0674  0.6976
 7750SOL    HW224692   4.195   2.320   4.222  0.4782  0.5781  0.8984
 7751SOL     OW24693   3.446   1.743   1.384  0.4021 -0.2178  0.3962
 7751SOL    HW124694   3.370   1.783   1.341  0.5587 -1.7396 -1.4459
 7751SOL    HW224695   3.520   1.796   1.357  0.1785  0.5264  1.1808
 7752SOL     OW24696   3.411   2.514   2.852  0.2748  0.3141  0.0117
 7752SOL    HW124697   3.343   2.473   2.798  0.1571  0.0919  0.3240
 7752SOL    HW224698   3.365   2.543   2.931  0.3400  1.1496 -0.2509
 7753SOL     OW24699   2.581   2.036   1.973 -0.4234  0.3502  0.2461
 7753SOL    HW124700   2.490   2.051   1.998 -0.5574 -0.4658  0.2809
 7753SOL    HW224701   2.630   2.108   2.014 -1.0217  0.6772  0.3930
 7754SOL     OW24702   3.157   2.708   1.383  0.1905  0.1015  0.1354
 7754SOL    HW124703   3.247   2.714   1.417  0.3591 -0.5017 -0.1809
 7754SOL    HW224704   3.168   2.694   1.289 -0.2478  0.4122  0.0345
 7755SOL     OW24705   2.180   0.857   4.962  0.1914 -0.5883  0.1726
 7755SOL    HW124706   2.253   0.832   4.904 -0.1258 -1.6602  0.2073
 7755SOL    HW224707   2.190   0.799   5.038 -0.6524 -0.6970  0.2045
 7756SOL     OW24708   1.505   4.272   3.062  0.4064 -0.2211  0.3310
 7756SOL    HW124709   1.577   4.253   3.001  1.1566 -0.3925  1.2452
 7756SOL    HW224710   1.528   4.356   3.101 -0.7476  0.5409 -0.5641
 7757SOL     OW24711   2.390   1.986   4.218 -0.5839  0.4604 -0.1321
 7757SOL    HW124712   2.461   1.921   4.224 -1.2293 -0.1396  1.8724
 7757SOL    HW224713   2.434   2.066   4.188  0.6550 -0.2759 -0.3881
 7758SOL     OW24714   3.208   2.943   1.602 -0.0501 -0.3982 -0.0403
 7758SOL    HW124715   3.280   2.981   1.553 -0.4479  0.6718  0.1825
 7758SOL    HW224716   3.239   2.856   1.628  0.5281 -0.5967 -1.3358
 7759SOL     OW24717   1.548   4.267   3.464 -0.5930  0.4639  0.0974
 7759SOL    HW124718   1.453   4.275   3.474 -0.5998  0.1660  0.3157
 7759SOL    HW224719   1.581   4.269   3.554 -0.3832  0.6927  0.0137
 7760SOL     OW24720   2.190   4.298   0.625 -0.0810 -0.2143 -0.5707
 7760SOL    HW124721   2.228   4.249   0.698  2.2947  1.7887 -0.3134
 7760SOL    HW224722   2.264   4.314   0.566 -1.2831  0.9294 -1.8378
 7761SOL     OW24723   1.765   3.226   1.738 -0.2890 -0.6090  0.2426
 7761SOL    HW124724   1.711   3.147   1.742 -0.4205 -0.4817  1.4659
 7761SOL    HW224725   1.714   3.292   1.787 -0.1110  0.1984 -0.6229
 7762SOL     OW24726   2.265   7.852   2.480  0.9622 -0.2090  0.3344
 7762SOL    HW124727   2.342   7.895   2.517  1.2187 -0.0567 -0.3592
 7762SOL    HW224728   2.278   7.858   2.386 -0.0175  0.0350  0.2045
 7763SOL     OW24729   1.993   2.942   2.693  0.4236 -0.3865 -0.3126
 7763SOL    HW124730   1.928   2.967   2.628  0.6746 -0.1538 -0.4751
 7763SOL    HW224731   2.005   2.848   2.679 -0.7551 -0.6805  0.5134
 7764SOL     OW24732   1.555   2.150   3.274 -0.3584  0.0757 -0.0993
 7764SOL    HW124733   1.465   2.135   3.301 -0.1995 -1.6408 -0.4029
 7764SOL    HW224734   1.565   2.098   3.195  1.6293 -2.0576  1.3990
 7765SOL     OW24735   2.754   4.396   2.273 -0.4130 -0.4836 -0.3915
 7765SOL    HW124736   2.789   4.477   2.237  0.3841 -0.6789 -0.0892
 7765SOL    HW224737   2.830   4.338   2.279 -0.7027 -0.7705  0.7064
 7766SOL     OW24738   1.914   2.945   3.617 -0.0862 -0.4889 -0.6035
 7766SOL    HW124739   2.003   2.977   3.614 -0.4176  0.8180  1.5500
 7766SOL    HW224740   1.923   2.849   3.622  1.2209 -0.3390  0.2904
 7767SOL     OW24741   2.489   4.083   2.111 -0.2581 -0.0871 -0.1691
 7767SOL    HW124742   2.580   4.076   2.138 -0.4382 -0.9744  0.2148
 7767SOL    HW224743   2.469   4.000   2.069 -0.4781  0.6325 -1.5749
 7768SOL     OW24744   3.643   2.398   2.706 -0.6950  0.0197 -0.6575
 7768SOL    HW124745   3.572   2.427   2.763 -0.2344 -1.5255  0.7590
 7768SOL    HW224746   3.608   2.320   2.663  1.4693 -3.6410  3.4843
 7769SOL     OW24747   1.140   4.388   3.147 -0.3704 -0.1068  0.3501
 7769SOL    HW124748   1.226   4.353   3.124  0.5927  2.4574 -0.3594
 7769SOL    HW224749   1.077   4.324   3.114  1.1980 -0.3306 -2.4440
 7770SOL     OW24750   1.704   2.198   2.386  0.3744  0.1028  0.0517
 7770SOL    HW124751   1.698   2.186   2.291 -2.3828  2.2092 -0.1812
 7770SOL    HW224752   1.777   2.259   2.398 -0.3449  1.2167 -0.9567
 7771SOL     OW24753   2.233   1.274   0.895 -0.4486 -0.4042 -0.2982
 7771SOL    HW124754   2.269   1.360   0.915 -1.2031 -0.3516  0.9311
 7771SOL    HW224755   2.305   1.227   0.853 -0.3223  1.1311 -1.8788
 7772SOL     OW24756   2.595   3.182   3.917  0.5817 -0.4670  0.0940
 7772SOL    HW124757   2.542   3.219   3.847  1.5721 -1.2117 -1.0844
 7772SOL    HW224758   2.646   3.256   3.951  0.2739 -0.1462 -0.1403
 7773SOL     OW24759   1.995   4.129   1.784  0.3407  0.0326  0.1590
 7773SOL    HW124760   2.070   4.168   1.739  1.2900  0.0843  1.6986
 7773SOL    HW224761   2.030   4.103   1.869 -1.3775 -0.0402  0.8782
 7774SOL     OW24762   1.622   4.519   2.620  0.0743 -0.4339 -0.1560
 7774SOL    HW124763   1.590   4.526   2.710  1.1895  0.3365  0.1962
 7774SOL    HW224764   1.672   4.600   2.606 -1.0070 -0.0154 -1.8512
 7775SOL     OW24765   2.348   4.224   2.327 -0.3643 -0.5802 -0.0335
 7775SOL    HW124766   2.319   4.143   2.368  0.5601 -0.8927  0.0166
 7775SOL    HW224767   2.401   4.196   2.252  0.1273 -0.0291  0.0987
 7776SOL     OW24768   1.857   1.772   1.227  0.0741 -0.3585  0.0909
 7776SOL    HW124769   1.768   1.747   1.202 -0.5901  2.1881 -0.4798
 7776SOL    HW224770   1.861   1.755   1.321 -1.5980  0.8293  0.4436
 7777SOL     OW24771   2.027   4.223   3.977  0.4551  0.2906 -0.2632
 7777SOL    HW124772   2.033   4.191   3.887 -1.6797 -1.3751  0.1065
 7777SOL    HW224773   1.986   4.309   3.968 -2.1847 -0.9236 -0.8337
 7778SOL     OW24774   2.600   0.789   3.674  0.0374 -0.1722 -0.2082
 7778SOL    HW124775   2.695   0.778   3.669 -0.2147 -2.5136 -0.5632
 7778SOL    HW224776   2.583   0.872   3.629  1.9250  0.4991  0.2198
 7779SOL     OW24777   2.384   3.692   2.224 -0.1003  0.0398 -0.4656
 7779SOL    HW124778   2.394   3.627   2.294  2.1476 -0.0955 -0.8649
 7779SOL    HW224779   2.290   3.711   2.224 -0.8003 -2.8664 -0.0426
 7780SOL     OW24780   2.435   2.715   3.553  0.0875  0.3863  0.0603
 7780SOL    HW124781   2.358   2.698   3.499  0.9073 -1.2831 -0.6541
 7780SOL    HW224782   2.414   2.795   3.601 -1.9024  0.2063 -0.4428
 7781SOL     OW24783   3.238   3.013   3.145 -0.4252 -0.3972  0.2455
 7781SOL    HW124784   3.145   3.029   3.162 -0.3086 -1.6428  2.3573
 7781SOL    HW224785   3.279   3.014   3.231  1.5077 -0.1795 -0.6185
 7782SOL     OW24786   2.011   2.027   1.922  0.1068  0.0895  0.2700
 7782SOL    HW124787   2.036   2.113   1.888 -2.0810  0.3387 -0.9016
 7782SOL    HW224788   2.020   1.968   1.847 -0.6061 -0.2355  0.4315
 7783SOL     OW24789   3.326   3.429   2.783  0.0400  0.4639 -0.5762
 7783SOL    HW124790   3.291   3.513   2.752 -0.9878  0.4761  0.5303
 7783SOL    HW224791   3.343   3.443   2.876 -0.2635 -0.5808 -0.3517
 7784SOL     OW24792   3.194   1.988   4.532  0.0306  0.4314  0.1760
 7784SOL    HW124793   3.211   2.040   4.611 -1.3089  2.3016 -0.7092
 7784SOL    HW224794   3.237   2.036   4.462 -1.0664  0.2452 -0.6430
 7785SOL     OW24795   3.426   3.874   1.568 -0.1426 -0.1465  0.6463
 7785SOL    HW124796   3.362   3.938   1.535 -0.4847 -0.0262  1.5036
 7785SOL    HW224797   3.443   3.903   1.658  0.8149 -0.4212  0.5597
 7786SOL     OW24798   1.918   3.277   2.303  0.1808 -0.0351  0.1314
 7786SOL    HW124799   1.946   3.333   2.376  1.8959  2.4323 -2.2380
 7786SOL    HW224800   1.988   3.212   2.294  0.1616 -0.0965  0.4209
 7787SOL     OW24801   4.644   1.836   4.468  0.3509  0.3494 -0.1999
 7787SOL    HW124802   4.622   1.927   4.450 -0.2937 -0.2177 -2.5540
 7787SOL    HW224803   4.617   1.823   4.559  0.3355  2.4412  0.1498
 7788SOL     OW24804   1.275   2.606   1.608 -0.6988  0.4598 -0.5069
 7788SOL    HW124805   1.278   2.525   1.557 -1.5087  0.9114 -1.3018
 7788SOL    HW224806   1.251   2.674   1.544 -1.5025  1.0811  0.4362
 7789SOL     OW24807   3.207   3.057   4.716  0.3637 -0.3006 -0.4563
 7789SOL    HW124808   3.158   3.110   4.654  0.4803  1.8186  1.1430
 7789SOL    HW224809   3.167   2.971   4.711 -1.2255  0.4519 -1.6781
 7790SOL     OW24810   3.378   3.013   3.382  0.2284 -0.4556 -0.0891
 7790SOL    HW124811   3.471   3.033   3.372  0.0052  0.6909  0.0328
 7790SOL    HW224812   3.369   2.986   3.474  0.2747  0.4592  0.1971
 7791SOL     OW24813   2.709   2.712   3.599 -0.1968 -0.4914 -0.7742
 7791SOL    HW124814   2.752   2.791   3.566  0.8104 -0.3399  0.7854
 7791SOL    HW224815   2.616   2.725   3.578  0.0895  0.5973 -1.4953
 7792SOL     OW24816   3.786   2.091   2.905 -0.2489 -0.6712 -0.0703
 7792SOL    HW124817   3.751   2.087   2.816  0.2165  1.4259 -0.3887
 7792SOL    HW224818   3.871   2.047   2.900  0.2444  0.3495 -0.9333
 7793SOL     OW24819   2.734   3.273   1.295  0.2841 -0.5747 -0.0461
 7793SOL    HW124820   2.681   3.202   1.331  1.4062 -1.3674  0.0969
 7793SOL    HW224821   2.674   3.348   1.290 -0.8948 -1.5018 -0.1286
 7794SOL     OW24822   1.822   2.008   3.968 -0.1946  0.1718 -0.3302
 7794SOL    HW124823   1.787   2.031   3.882 -1.8334 -0.4883  0.1136
 7794SOL    HW224824   1.914   1.986   3.952 -0.5455 -0.2137 -1.9698
 7795SOL     OW24825   2.442   2.475   2.875  0.4729  0.0739 -0.0657
 7795SOL    HW124826   2.476   2.464   2.964  1.5319 -0.3302 -0.4906
 7795SOL    HW224827   2.465   2.564   2.851  0.4602  0.0845 -0.0384
 7796SOL     OW24828   2.675   2.799   4.601  0.2087  0.2146  0.4870
 7796SOL    HW124829   2.722   2.820   4.520  0.2771 -1.4802  0.0570
 7796SOL    HW224830   2.668   2.704   4.601 -1.8014  0.3108  1.3564
 7797SOL     OW24831   1.897   2.953   2.213 -0.1487 -0.4430 -0.1783
 7797SOL    HW124832   1.906   2.950   2.118  1.1519  0.8557 -0.1209
 7797SOL    HW224833   1.968   3.010   2.243  0.0812 -1.5999  1.6591
 7798SOL     OW24834   0.364   2.064   2.913  0.5080 -0.4883 -0.0181
 7798SOL    HW124835   0.381   2.065   3.007  1.2662  0.8024 -0.1490
 7798SOL    HW224836   0.444   2.026   2.875  0.3988 -0.5612 -0.1740
 7799SOL     OW24837   3.138   2.991   2.695  0.4584  0.6402  0.5152
 7799SOL    HW124838   3.198   3.062   2.673  2.0816  0.0485  2.6855
 7799SOL    HW224839   3.195   2.916   2.713 -1.1842 -1.1822 -1.3851
 7800SOL     OW24840   3.621   3.126   3.354 -0.5671 -0.0972 -0.0076
 7800SOL    HW124841   3.640   3.065   3.426 -1.0358  0.9470  1.0316
 7800SOL    HW224842   3.695   3.116   3.295 -0.6355 -1.6790  0.1279
 7801SOL     OW24843   4.332   5.106   2.214 -0.1809 -0.0640  0.1111
 7801SOL    HW124844   4.253   5.124   2.266  0.9658  2.6675  1.0788
 7801SOL    HW224845   4.384   5.048   2.269  0.0221  1.0091  1.0950
 7802SOL     OW24846   2.455   3.265   5.367  0.6896  0.2741 -0.2343
 7802SOL    HW124847   2.514   3.208   5.416  0.1453 -1.1888 -1.2209
 7802SOL    HW224848   2.505   3.293   5.291  0.9704  1.2004  0.2681
 7803SOL     OW24849   2.107   3.826   3.486  0.7594 -0.3215 -0.2594
 7803SOL    HW124850   2.174   3.769   3.450  0.2320 -2.0513  1.3130
 7803SOL    HW224851   2.043   3.765   3.525 -1.2195  1.2774 -0.8745
 7804SOL     OW24852   4.109   1.475   3.086  0.2594  0.2201  0.0906
 7804SOL    HW124853   4.190   1.442   3.046  0.8255  0.2091  1.1940
 7804SOL    HW224854   4.127   1.567   3.105 -0.4535  0.5551 -0.7942
 7805SOL     OW24855   3.499   1.061   3.278  0.2518  0.1871 -0.3028
 7805SOL    HW124856   3.561   1.100   3.217  0.2007  0.3519 -0.2501
 7805SOL    HW224857   3.552   1.028   3.350  0.4090 -0.8594 -0.8777
 7806SOL     OW24858   2.297   0.541   1.029 -0.1116  0.2115  0.3108
 7806SOL    HW124859   2.279   0.447   1.025  0.1137  0.1916 -0.4230
 7806SOL    HW224860   2.215   0.582   1.003 -0.0862  0.2037  0.2171
 7807SOL     OW24861   1.992   4.229   2.288 -0.2907 -0.7088  1.0552
 7807SOL    HW124862   1.950   4.173   2.353 -2.6432  2.1562  2.2197
 7807SOL    HW224863   2.052   4.284   2.338 -2.6744  2.0624  1.1831
 7808SOL     OW24864   2.481   3.870   2.857  0.1758  0.1640  0.2754
 7808SOL    HW124865   2.520   3.797   2.904 -1.1710  0.2044  1.5218
 7808SOL    HW224866   2.387   3.861   2.871 -0.1688  1.0783 -1.1298
 7809SOL     OW24867   3.516   2.034   4.636  0.0388  0.4464  0.0683
 7809SOL    HW124868   3.581   2.092   4.675  0.7793 -2.0253  2.8917
 7809SOL    HW224869   3.553   2.009   4.551  3.0349 -0.9837  1.6157
 7810SOL     OW24870   0.783   4.797   5.005 -0.0283  0.2931  0.3544
 7810SOL    HW124871   0.717   4.729   5.015 -0.1401  0.5330  1.3379
 7810SOL    HW224872   0.858   4.767   5.057  0.8523 -0.2045 -1.1289
 7811SOL     OW24873   0.847   2.734   3.402 -0.1618  0.0234  0.0015
 7811SOL    HW124874   0.918   2.702   3.457 -0.2263  0.3183  0.2541
 7811SOL    HW224875   0.825   2.820   3.437 -0.1988  0.2181 -0.4843
 7812SOL     OW24876   2.271   4.242   2.959 -0.1320 -0.2349 -0.5097
 7812SOL    HW124877   2.261   4.333   2.931 -0.5314 -0.1347 -0.0568
 7812SOL    HW224878   2.354   4.214   2.921 -0.5536 -0.0408 -1.5915
 7813SOL     OW24879   0.967   4.414   3.373  0.3725  0.0392  0.2945
 7813SOL    HW124880   0.996   4.457   3.292  0.3429 -1.1641 -0.3801
 7813SOL    HW224881   0.954   4.323   3.348  0.3280 -0.3469  1.6660
 7814SOL     OW24882   2.926   1.390   2.349 -0.0012 -0.1070  0.3975
 7814SOL    HW124883   2.866   1.381   2.275  0.9518 -0.7699 -0.3205
 7814SOL    HW224884   2.953   1.482   2.347  0.8406 -0.3743 -0.7365
 7815SOL     OW24885   2.798   3.298   3.290  0.2854  0.2610 -0.3756
 7815SOL    HW124886   2.709   3.271   3.267  0.5501  0.7429 -2.1531
 7815SOL    HW224887   2.791   3.333   3.379 -1.4356  0.8850 -0.7151
 7816SOL     OW24888   2.702   2.649   2.801  0.3199  0.1090 -0.3258
 7816SOL    HW124889   2.731   2.572   2.753 -1.1628 -0.4332 -0.4210
 7816SOL    HW224890   2.744   2.642   2.887  1.7728  0.2787 -0.9939
 7817SOL     OW24891   2.204   3.291   3.917  0.2608  0.2048 -0.5494
 7817SOL    HW124892   2.272   3.309   3.853 -0.2928  1.9479 -0.6910
 7817SOL    HW224893   2.148   3.225   3.875  0.0251  1.1633 -1.7977
 7818SOL     OW24894   1.418   2.957   3.706  0.1048  0.1490 -0.0378
 7818SOL    HW124895   1.355   3.011   3.754 -0.3925 -1.1482  0.8143
 7818SOL    HW224896   1.492   3.016   3.690 -0.7687  1.3238  0.0968
 7819SOL     OW24897   1.625   1.985   1.337 -0.3921 -1.0837 -0.2019
 7819SOL    HW124898   1.642   2.055   1.275  0.8456 -1.7364 -0.6250
 7819SOL    HW224899   1.696   1.991   1.400 -0.7115 -1.4792  0.2051
 7820SOL     OW24900   5.397   3.057   1.277  0.2113 -0.1188 -0.3303
 7820SOL    HW124901   5.305   3.049   1.252  0.3109  0.3075 -0.8509
 7820SOL    HW224902   5.397   3.046   1.372 -0.3963  0.0059 -0.3106
 7821SOL     OW24903   3.482   3.439   1.609 -0.2609  0.6693 -0.2643
 7821SOL    HW124904   3.391   3.411   1.600 -0.4204  0.8740  0.5753
 7821SOL    HW224905   3.534   3.364   1.582 -0.6760  0.6990 -1.1719
 7822SOL     OW24906   2.980   3.217   1.746 -0.3489 -0.2809 -0.0178
 7822SOL    HW124907   2.950   3.248   1.831 -1.1773 -0.8211 -0.1064
 7822SOL    HW224908   2.968   3.292   1.688  1.1559  0.4196  0.5213
 7823SOL     OW24909   1.442   2.926   1.730  0.2605 -0.4478  0.7299
 7823SOL    HW124910   1.440   2.969   1.815  1.7242  1.1612  0.0165
 7823SOL    HW224911   1.367   2.964   1.683 -0.6874 -1.5108  1.3490
 7824SOL     OW24912   3.195   2.359   3.836 -0.0631 -0.0656 -0.0503
 7824SOL    HW124913   3.149   2.331   3.915  1.6762  0.6987  1.2994
 7824SOL    HW224914   3.154   2.442   3.812  0.0313  0.1889  0.6471
 7825SOL     OW24915   2.317   1.652   2.561 -0.3070  0.4485  0.4546
 7825SOL    HW124916   2.408   1.652   2.593 -0.1699  1.9030  0.1381
 7825SOL    HW224917   2.310   1.573   2.508  1.1215  0.8694 -0.4133
 7826SOL     OW24918   4.869   4.644   1.744  0.7536 -0.3581  0.7081
 7826SOL    HW124919   4.818   4.719   1.776  0.7644 -0.4341  0.9052
 7826SOL    HW224920   4.817   4.609   1.673  1.2124  0.4282 -0.0373
 7827SOL     OW24921   2.356   2.943   3.640  0.2903  0.8160  0.5251
 7827SOL    HW124922   2.366   2.969   3.732 -0.6918  0.1801  0.8294
 7827SOL    HW224923   2.295   3.006   3.603 -0.4093  0.2496  0.6923
 7828SOL     OW24924   1.802   4.367   3.433 -0.1643 -0.5812  0.1467
 7828SOL    HW124925   1.817   4.445   3.378  0.4612 -0.5424  0.3680
 7828SOL    HW224926   1.708   4.353   3.427 -0.1047 -0.6453 -1.0382
 7829SOL     OW24927   2.162   2.034   5.580 -0.6708 -0.1638  0.0035
 7829SOL    HW124928   2.194   2.123   5.568 -0.0538 -0.4895 -0.8739
 7829SOL    HW224929   2.153   2.024   5.675  0.2797  0.4795  0.1783
 7830SOL     OW24930   3.163   1.658   2.406  0.1714 -0.3321 -0.0534
 7830SOL    HW124931   3.208   1.736   2.372 -1.5298 -0.2128 -2.2373
 7830SOL    HW224932   3.220   1.585   2.380 -0.9780 -0.2288 -3.2517
 7831SOL     OW24933   1.608   4.507   5.507  0.1394  0.7885  0.0923
 7831SOL    HW124934   1.528   4.558   5.494 -1.4376 -1.6338 -0.4034
 7831SOL    HW224935   1.597   4.430   5.451  2.2111 -0.2820  1.0369
 7832SOL     OW24936   4.929   2.871   4.627 -0.4589  0.2826  0.3283
 7832SOL    HW124937   4.842   2.895   4.596 -1.4167 -1.9059  1.1345
 7832SOL    HW224938   4.915   2.794   4.683  1.8653  0.5344  1.4034
 7833SOL     OW24939   1.572   2.889   1.496  0.2021  0.5949 -0.2637
 7833SOL    HW124940   1.532   2.924   1.575 -1.5621  1.3892 -1.4643
 7833SOL    HW224941   1.510   2.823   1.465  2.4305 -2.2409  0.7599
 7834SOL     OW24942   3.004   3.771   2.656  0.0053  0.3857 -0.1998
 7834SOL    HW124943   3.005   3.712   2.580 -0.0698 -1.1796  0.9867
 7834SOL    HW224944   3.084   3.752   2.704 -1.3967 -0.9114  1.7704
 7835SOL     OW24945   3.978   2.716   2.364 -0.0433 -0.1003  0.4745
 7835SOL    HW124946   3.950   2.796   2.408 -0.0347 -0.8402  1.8976
 7835SOL    HW224947   3.943   2.645   2.418  2.1100 -1.0613  0.7121
 7836SOL     OW24948   2.857   3.045   3.885  0.1300  0.4843  0.0109
 7836SOL    HW124949   2.912   3.095   3.944  1.0241  2.5992 -2.4012
 7836SOL    HW224950   2.773   3.091   3.886 -0.8714 -1.2757  1.8309
 7837SOL     OW24951   2.997   4.014   1.280 -0.2255  0.6401 -0.0243
 7837SOL    HW124952   3.068   3.986   1.222  0.2914  1.5966  0.1169
 7837SOL    HW224953   2.918   4.003   1.228 -0.1712 -1.8183  0.3078
 7838SOL     OW24954   1.883   2.569   1.800  0.1692  0.3225 -0.5510
 7838SOL    HW124955   1.876   2.631   1.872 -1.0436 -0.1082 -0.2723
 7838SOL    HW224956   1.975   2.574   1.773  1.0574 -0.5858  1.9931
 7839SOL     OW24957   2.168   3.661   2.693 -0.2095  0.3082 -0.3018
 7839SOL    HW124958   2.114   3.596   2.737  0.4508  0.2390  0.4361
 7839SOL    HW224959   2.251   3.617   2.677  0.3823  1.0619  0.5525
 7840SOL     OW24960   2.246   2.547   1.382  0.4642  0.2600  0.2964
 7840SOL    HW124961   2.187   2.622   1.391  0.4955  0.2443  0.6280
 7840SOL    HW224962   2.324   2.583   1.340 -0.6928 -0.1585 -2.4598
 7841SOL     OW24963   2.897   2.914   3.186  0.5996  0.2053  0.8139
 7841SOL    HW124964   2.919   2.917   3.279  1.9172 -1.1814  0.5768
 7841SOL    HW224965   2.926   2.999   3.152  2.4197 -0.2029  1.2292
 7842SOL     OW24966   2.526   4.586   2.128  0.1702  0.0807 -0.0758
 7842SOL    HW124967   2.621   4.581   2.135  0.4175  0.9179 -2.1261
 7842SOL    HW224968   2.498   4.498   2.105  0.4649 -0.0940  0.2307
 7843SOL     OW24969   1.661   5.083   3.284  0.7179 -0.5380 -0.3604
 7843SOL    HW124970   1.621   5.168   3.302 -0.3294 -0.8358 -1.2176
 7843SOL    HW224971   1.666   5.041   3.370 -0.5680 -0.3784 -0.1926
 7844SOL     OW24972   3.793   2.471   2.054 -0.3339 -0.2062  0.7412
 7844SOL    HW124973   3.798   2.567   2.052  0.9893 -0.2118 -1.8715
 7844SOL    HW224974   3.881   2.444   2.082 -0.8382 -0.6963  1.9072
 7845SOL     OW24975   2.865   2.014   2.209 -0.4471 -0.4587  0.3396
 7845SOL    HW124976   2.797   1.947   2.201 -0.8856 -0.0205  0.3441
 7845SOL    HW224977   2.838   2.066   2.285 -0.5328  0.1950 -0.1341
 7846SOL     OW24978   1.247   2.765   3.794  0.1296 -0.1723  0.3204
 7846SOL    HW124979   1.314   2.830   3.777  1.1474 -0.7180  2.0111
 7846SOL    HW224980   1.270   2.728   3.879 -0.7373 -2.3210 -0.3006
 7847SOL     OW24981   3.722   4.868   1.589  0.1295 -0.1838 -0.5427
 7847SOL    HW124982   3.772   4.923   1.529 -0.5699 -0.5553 -1.4823
 7847SOL    HW224983   3.717   4.920   1.670 -1.1362  1.4890 -1.6230
 7848SOL     OW24984   2.180   3.873   3.182 -0.0645  0.1930  0.4156
 7848SOL    HW124985   2.269   3.858   3.215 -1.2002  0.1016  3.8156
 7848SOL    HW224986   2.135   3.789   3.193 -0.2679 -0.2996 -2.9133
 7849SOL     OW24987   2.716   4.157   1.850 -0.0707  0.4041 -0.1867
 7849SOL    HW124988   2.657   4.209   1.794  0.8602  2.2542  0.4585
 7849SOL    HW224989   2.802   4.196   1.836  0.8988 -1.7475 -0.5084
 7850SOL     OW24990   3.673   2.820   2.975  0.0823 -0.3473 -0.5173
 7850SOL    HW124991   3.590   2.866   2.967  0.3434  0.0481 -1.0063
 7850SOL    HW224992   3.724   2.873   3.037 -1.1522 -2.2610  2.3737
 7851SOL     OW24993   2.654   3.016   2.475 -0.2545 -0.0700  0.2402
 7851SOL    HW124994   2.722   3.083   2.480  0.6008 -1.0053  2.4605
 7851SOL    HW224995   2.701   2.935   2.454 -1.1090 -0.2476 -1.1351
 7852SOL     OW24996   3.233   4.498   1.313  0.5289 -0.4876  0.0850
 7852SOL    HW124997   3.186   4.577   1.340  1.3561 -0.5929  1.9562
 7852SOL    HW224998   3.173   4.427   1.335  1.1667 -0.5685  1.7470
 7853SOL     OW24999   2.597   3.598   3.674  0.4225 -0.1942  0.5531
 7853SOL    HW125000   2.649   3.590   3.754 -0.2987 -1.1090  0.9420
 7853SOL    HW225001   2.557   3.685   3.681 -0.1953 -0.5370  1.5403
 7854SOL     OW25002   2.771   3.606   1.098 -0.0645 -0.4375  0.7521
 7854SOL    HW125003   2.702   3.661   1.061  0.2052  0.0014  0.8872
 7854SOL    HW225004   2.738   3.516   1.089  0.1254 -0.3758 -0.8110
 7855SOL     OW25005   1.359   4.470   1.676 -0.9083 -0.1530 -0.6989
 7855SOL    HW125006   1.369   4.388   1.628 -0.5501  0.1893 -1.2269
 7855SOL    HW225007   1.437   4.476   1.730 -1.5177 -0.7509  0.2794
 7856SOL     OW25008   1.695   2.272   4.692  0.0910  0.4334  0.0126
 7856SOL    HW125009   1.703   2.233   4.779  0.4275 -0.9671 -0.6272
 7856SOL    HW225010   1.698   2.366   4.708 -1.1031  0.2456  1.6379
 7857SOL     OW25011   4.023   3.125   3.535 -0.1060 -0.0475 -0.2478
 7857SOL    HW125012   3.973   3.198   3.573 -2.0807 -0.6988 -1.4818
 7857SOL    HW225013   4.103   3.166   3.501 -0.0527  1.1336  1.1959
 7858SOL     OW25014   3.198   5.163   2.575 -0.5448  0.5782  0.1361
 7858SOL    HW125015   3.207   5.069   2.591 -0.0616  0.8198  1.3948
 7858SOL    HW225016   3.201   5.171   2.480 -1.9831 -0.8077 -0.0604
 7859SOL     OW25017   2.256   1.950   2.906  0.1410 -0.5856  0.5888
 7859SOL    HW125018   2.220   1.871   2.865 -0.4633  0.2354 -0.5213
 7859SOL    HW225019   2.311   1.917   2.977 -1.0161 -1.9767  0.9075
 7860SOL     OW25020   1.015   1.151   3.242  0.1033 -0.6919  0.2397
 7860SOL    HW125021   0.944   1.199   3.200 -0.5945 -2.0390 -0.1671
 7860SOL    HW225022   1.007   1.171   3.335 -1.3503 -1.4786  0.3086
 7861SOL     OW25023   3.592   1.820   2.980  0.2224  0.3229 -0.3664
 7861SOL    HW125024   3.610   1.846   3.071 -0.4469 -0.2859 -0.0420
 7861SOL    HW225025   3.678   1.805   2.942  0.5337  1.1010  0.0103
 7862SOL     OW25026   2.689   3.247   1.629 -0.7506 -0.1926  0.2565
 7862SOL    HW125027   2.737   3.306   1.572 -2.5214 -0.3321 -1.5014
 7862SOL    HW225028   2.602   3.286   1.636 -1.2415 -1.3703  1.0062
 7863SOL     OW25029   1.600   3.015   3.338 -0.0391  0.7419  0.1055
 7863SOL    HW125030   1.547   3.066   3.400  0.7211  0.4273  1.0289
 7863SOL    HW225031   1.622   2.935   3.385 -1.2903 -0.5225 -1.3542
 7864SOL     OW25032   3.612   1.591   1.806 -0.0339  0.8799 -0.4142
 7864SOL    HW125033   3.577   1.594   1.716 -0.5744  1.7063 -0.1881
 7864SOL    HW225034   3.588   1.504   1.838  1.2255  0.0996 -1.4694
 7865SOL     OW25035   1.623   0.969   2.126  0.1229  0.8211  0.1804
 7865SOL    HW125036   1.627   1.048   2.071  0.1410  0.7996  0.1507
 7865SOL    HW225037   1.682   0.908   2.083  1.1297  1.2404  0.9248
 7866SOL     OW25038   3.614   1.693   2.590  0.2799 -0.0766  0.1267
 7866SOL    HW125039   3.709   1.690   2.585  0.3556  1.4702  0.1023
 7866SOL    HW225040   3.595   1.763   2.652 -0.8461 -0.4028  0.1886
 7867SOL     OW25041   0.236   2.743   2.900  0.2906  0.0995 -0.0491
 7867SOL    HW125042   0.160   2.781   2.944  0.1926  1.6776 -1.4822
 7867SOL    HW225043   0.311   2.767   2.954 -0.0151  0.3605  0.2587
 7868SOL     OW25044   2.851   4.636   3.535 -0.6843  0.2819 -0.1976
 7868SOL    HW125045   2.861   4.563   3.595 -0.5249 -0.1644 -0.7533
 7868SOL    HW225046   2.825   4.710   3.590 -0.0976 -0.0003  0.4780
 7869SOL     OW25047   1.921   3.031   2.944 -0.5778  0.4497 -0.0882
 7869SOL    HW125048   1.954   2.990   2.864  0.2133  0.1008  0.4096
 7869SOL    HW225049   1.988   3.094   2.969  0.2284 -0.9417  1.4520
 7870SOL     OW25050   1.730   2.844   3.861  0.7756  0.3352 -0.6646
 7870SOL    HW125051   1.671   2.768   3.854  0.0544  0.8147  0.0107
 7870SOL    HW225052   1.785   2.838   3.783 -0.2935 -0.0333 -1.4265
 7871SOL     OW25053   3.597   2.862   3.794 -0.6943  0.3516 -0.8338
 7871SOL    HW125054   3.525   2.804   3.818  0.3359 -0.1490  1.2569
 7871SOL    HW225055   3.586   2.938   3.851  0.7093  0.0312 -0.1029
 7872SOL     OW25056   1.608   2.467   2.598 -0.3669  0.0386  0.1404
 7872SOL    HW125057   1.663   2.545   2.598  1.4358 -1.1373  1.7785
 7872SOL    HW225058   1.643   2.413   2.668 -2.2930 -1.7595 -0.1792
 7873SOL     OW25059   2.929   3.145   2.232 -0.0963  0.1851 -0.1801
 7873SOL    HW125060   2.928   3.164   2.326  1.4731  0.8186 -0.2537
 7873SOL    HW225061   2.982   3.066   2.223  1.3798  1.1763 -0.6468
 7874SOL     OW25062   2.372   3.361   1.958 -0.0338 -0.1465 -0.7922
 7874SOL    HW125063   2.401   3.359   2.049 -0.1083 -0.8013 -0.7842
 7874SOL    HW225064   2.451   3.381   1.908 -0.0746  0.6664 -0.5572
 7875SOL     OW25065   3.585   2.173   3.071  0.0970 -0.2259 -0.0314
 7875SOL    HW125066   3.657   2.181   3.009  0.5639  0.2688  0.5563
 7875SOL    HW225067   3.564   2.080   3.071  0.1961 -0.2527 -0.8089
 7876SOL     OW25068   2.120   2.068   4.181 -0.0839  0.3340  0.4571
 7876SOL    HW125069   2.108   2.151   4.228  0.6310  0.2884  0.7350
 7876SOL    HW225070   2.212   2.046   4.195 -0.3775 -0.7376  0.7611
 7877SOL     OW25071   3.196   1.801   4.043  0.2903  0.2504 -0.0271
 7877SOL    HW125072   3.135   1.829   3.975  1.4370  2.7886 -0.1403
 7877SOL    HW225073   3.267   1.759   3.995 -0.4943 -1.1270 -0.0398
 7878SOL     OW25074   1.601   3.709   0.854 -0.6005  0.6809 -0.5091
 7878SOL    HW125075   1.544   3.714   0.931 -0.8045  1.8129 -0.7180
 7878SOL    HW225076   1.654   3.631   0.869  0.0689  1.4304  1.2766
 7879SOL     OW25077   2.708   3.696   4.255 -0.5210  0.6604 -0.1269
 7879SOL    HW125078   2.758   3.622   4.292 -2.0601 -0.5339 -0.3083
 7879SOL    HW225079   2.764   3.772   4.270  1.6490 -0.6590 -0.9125
 7880SOL     OW25080   2.283   4.670   2.005 -0.3941  0.1209 -0.3206
 7880SOL    HW125081   2.361   4.680   2.059 -0.7100 -0.2040  0.2022
 7880SOL    HW225082   2.211   4.669   2.067 -0.7840  0.0021 -0.7704
 7881SOL     OW25083   3.644   1.889   1.055  0.6318  0.1623  0.0317
 7881SOL    HW125084   3.617   1.797   1.044 -1.3626  0.3707  2.2956
 7881SOL    HW225085   3.591   1.937   0.991  3.3410 -0.3377 -2.8367
 7882SOL     OW25086   1.634   3.599   2.693 -0.2672  0.7884  0.0151
 7882SOL    HW125087   1.650   3.652   2.771  0.7356  1.0195 -0.3395
 7882SOL    HW225088   1.608   3.661   2.625 -1.9670  0.5084  0.3494
 7883SOL     OW25089   1.609   3.630   3.262  1.1207 -0.1284 -0.0456
 7883SOL    HW125090   1.560   3.556   3.226  0.0798  0.2465  0.5333
 7883SOL    HW225091   1.663   3.593   3.331 -0.2423 -0.2097  1.0079
 7884SOL     OW25092   3.435   2.809   4.068  0.4156 -0.0970 -0.0662
 7884SOL    HW125093   3.508   2.869   4.086 -0.0329  0.7841 -1.0140
 7884SOL    HW225094   3.376   2.820   4.143 -0.2750  1.6667 -0.7972
 7885SOL     OW25095   2.685   2.224   2.118 -0.4992 -0.0530  0.1758
 7885SOL    HW125096   2.655   2.253   2.204 -0.4192  2.6922 -0.6421
 7885SOL    HW225097   2.751   2.288   2.093  0.0451 -1.2425 -1.6375
 7886SOL     OW25098   0.855   3.990   3.070  0.0577 -0.8530  0.3866
 7886SOL    HW125099   0.790   3.958   3.132 -2.8837 -0.6235 -2.3248
 7886SOL    HW225100   0.846   3.934   2.994  2.2492 -0.0301 -0.5759
 7887SOL     OW25101   1.275   2.823   3.058 -0.7413  0.2892 -0.0843
 7887SOL    HW125102   1.317   2.908   3.074  1.5854 -0.9171  0.5460
 7887SOL    HW225103   1.314   2.792   2.976  1.2571 -1.7372  1.5109
 7888SOL     OW25104   1.082   3.222   3.701  0.1511 -0.4474 -0.2678
 7888SOL    HW125105   1.003   3.229   3.755  1.0614  0.7800  0.9630
 7888SOL    HW225106   1.100   3.311   3.673  2.0926 -0.3721  1.0008
 7889SOL     OW25107   3.309   3.211   2.621  0.2583 -0.0958 -0.1568
 7889SOL    HW125108   3.395   3.170   2.624 -0.4304 -1.6020  3.0704
 7889SOL    HW225109   3.313   3.283   2.684 -0.8483 -0.1685  0.0218
 7890SOL     OW25110   2.366   2.917   3.259 -0.3676  0.0285  0.0421
 7890SOL    HW125111   2.278   2.879   3.265 -0.4762  0.2262 -0.2508
 7890SOL    HW225112   2.397   2.921   3.349 -0.1202 -1.2944  0.0350
 7891SOL     OW25113   1.398   2.188   2.519 -0.6165 -0.3224  0.1196
 7891SOL    HW125114   1.461   2.117   2.530 -0.7009 -0.5941 -1.0447
 7891SOL    HW225115   1.453   2.266   2.508 -0.5222 -0.2228  1.1736
 7892SOL     OW25116   2.593   5.003   3.463  0.5717  0.2553  0.2997
 7892SOL    HW125117   2.577   4.912   3.437 -0.4267  0.1596  1.1934
 7892SOL    HW225118   2.563   5.007   3.554  0.0116  1.6339  0.0669
 7893SOL     OW25119   2.236   2.298   2.435  0.3468  0.2528 -0.3252
 7893SOL    HW125120   2.250   2.279   2.528 -0.7744 -2.0153 -0.5459
 7893SOL    HW225121   2.162   2.358   2.434  0.9905  1.0862  0.2593
 7894SOL     OW25122   3.919   2.103   1.560  0.2454 -0.2414  0.2915
 7894SOL    HW125123   3.966   2.039   1.506  0.9861 -1.3887  2.1806
 7894SOL    HW225124   3.983   2.130   1.626 -1.0667 -0.0740  1.5360
 7895SOL     OW25125   2.462   3.124   2.355 -0.0238 -0.5831  0.8258
 7895SOL    HW125126   2.411   3.171   2.421  0.3456 -0.3703  0.9597
 7895SOL    HW225127   2.536   3.087   2.403 -0.1108 -0.9935  0.6528
 7896SOL     OW25128   2.001   3.882   2.261 -0.1955  0.5169  0.3956
 7896SOL    HW125129   2.047   3.799   2.274  0.2533  0.5931 -0.5810
 7896SOL    HW225130   1.970   3.906   2.348 -0.4738 -0.7537  0.6698
 7897SOL     OW25131   3.117   4.801   1.917 -0.4807 -0.0545  0.4053
 7897SOL    HW125132   3.078   4.756   1.992 -0.3023 -0.8419  0.0394
 7897SOL    HW225133   3.049   4.861   1.888 -0.3107  0.7569  1.5999
 7898SOL     OW25134   2.223   2.320   5.125 -0.0368  0.3998 -0.5514
 7898SOL    HW125135   2.247   2.235   5.089  1.2842  0.1833  0.7466
 7898SOL    HW225136   2.178   2.365   5.054 -0.7921 -1.3905 -1.2508
 7899SOL     OW25137   2.525   2.031   4.829 -0.1849  0.3868 -0.2344
 7899SOL    HW125138   2.457   1.974   4.793  0.5751 -0.7831  0.0896
 7899SOL    HW225139   2.526   2.108   4.772 -3.0734  1.3723  0.8638
 7900SOL     OW25140   7.830   3.371   3.893  0.4509 -0.6436  0.1612
 7900SOL    HW125141   7.805   3.330   3.976  0.8191  1.2104  1.2233
 7900SOL    HW225142   7.790   3.458   3.895  0.9984 -0.3185 -1.3352
 7901SOL     OW25143   1.334   1.690   5.020  0.2607  0.2489  0.0621
 7901SOL    HW125144   1.263   1.680   4.957  0.3062  1.7127 -0.2587
 7901SOL    HW225145   1.293   1.725   5.098  0.6899  1.7856 -0.3621
 7902SOL     OW25146   3.710   4.012   4.656 -0.1341  0.2596 -0.1396
 7902SOL    HW125147   3.722   4.077   4.725  0.7987 -2.1017  2.0779
 7902SOL    HW225148   3.625   3.972   4.676 -0.7257  0.7645 -1.5147
 7903SOL     OW25149   3.322   2.065   1.622 -0.0610 -0.0396  0.3713
 7903SOL    HW125150   3.280   2.108   1.696 -0.5670 -0.1614  0.1628
 7903SOL    HW225151   3.275   2.098   1.545  2.0739  2.0208 -0.1505
 7904SOL     OW25152   2.352   2.100   4.461  0.0084 -0.3300 -0.9944
 7904SOL    HW125153   2.366   2.066   4.373  2.0974 -0.2469 -0.7383
 7904SOL    HW225154   2.377   2.027   4.519 -0.8965 -0.2297 -0.4549
 7905SOL     OW25155   2.414   4.050   3.386 -0.2823  0.2687 -0.4709
 7905SOL    HW125156   2.437   3.999   3.308  1.1345 -0.2871  0.2744
 7905SOL    HW225157   2.354   4.117   3.354 -1.4021 -1.2185 -1.6675
 7906SOL     OW25158   3.262   1.838   7.792  0.1609  0.3933  0.6054
 7906SOL    HW125159   3.174   1.807   7.773  0.1569  0.2467  0.8623
 7906SOL    HW225160   3.304   1.764   7.836  1.3000 -0.5944 -1.8963
 7907SOL     OW25161   2.707   4.223   3.989 -0.2023  0.1917 -0.1687
 7907SOL    HW125162   2.784   4.266   3.952 -1.0638  0.6233 -1.5906
 7907SOL    HW225163   2.740   4.141   4.026  1.2354  1.3260  1.1781
 7908SOL     OW25164   3.729   2.932   5.074 -0.7145  0.3954  0.2946
 7908SOL    HW125165   3.719   3.018   5.032 -1.3549  0.4230  0.4854
 7908SOL    HW225166   3.764   2.953   5.161 -0.4363  0.4264  0.1754
 7909SOL     OW25167   2.885   2.187   4.321 -0.2068 -0.1268  0.3830
 7909SOL    HW125168   2.948   2.224   4.383  1.4500  0.0725 -1.3414
 7909SOL    HW225169   2.834   2.263   4.291 -1.2913 -0.2818  1.7444
 7910SOL     OW25170   3.061   2.190   5.630 -0.1762  0.3222  0.2751
 7910SOL    HW125171   2.992   2.159   5.572 -0.4335 -0.8458  1.1766
 7910SOL    HW225172   3.133   2.213   5.571 -1.3503  1.7187 -0.6926
 7911SOL     OW25173   3.922   1.189   6.488 -0.1417  0.0601 -0.4028
 7911SOL    HW125174   3.879   1.116   6.532  1.4310 -1.6239 -1.5338
 7911SOL    HW225175   3.923   1.259   6.553  1.1430 -1.9563  1.9153
 7912SOL     OW25176   1.964   3.289   4.111  0.3340  0.3798 -0.0727
 7912SOL    HW125177   2.056   3.261   4.103 -0.0704 -0.8329 -0.6793
 7912SOL    HW225178   1.961   3.374   4.068  0.5465 -0.9996 -3.0787
 7913SOL     OW25179   2.615   2.990   6.128 -0.6162  0.3881 -0.0730
 7913SOL    HW125180   2.658   3.062   6.082 -1.7950  0.1125 -1.7066
 7913SOL    HW225181   2.523   3.017   6.134 -0.5789  0.2127  1.7829
 7914SOL     OW25182   0.453   4.002   5.484 -0.3046 -0.2487 -0.1192
 7914SOL    HW125183   0.464   3.907   5.480  0.7555 -0.1215 -2.9152
 7914SOL    HW225184   0.401   4.017   5.562 -0.4778 -3.1191  0.4356
 7915SOL     OW25185   1.989   3.706   6.709 -0.2556  0.0967 -0.3206
 7915SOL    HW125186   1.999   3.632   6.649  0.2900 -1.1122  1.1875
 7915SOL    HW225187   1.894   3.711   6.724 -0.4377  0.6582 -1.5407
 7916SOL     OW25188   3.464   3.901   4.689  0.2885  0.1775  0.6153
 7916SOL    HW125189   3.439   3.843   4.761 -2.4916  0.8245  0.3009
 7916SOL    HW225190   3.442   3.851   4.610 -0.2290  0.8620  0.3119
 7917SOL     OW25191   2.139   2.546   3.110  0.2147  0.5275  0.4142
 7917SOL    HW125192   2.062   2.594   3.140 -0.5562 -2.0818  3.1151
 7917SOL    HW225193   2.110   2.501   3.031  0.4932  3.0541 -1.2499
 7918SOL     OW25194   2.514   2.469   5.127 -0.4695 -0.1817 -0.1850
 7918SOL    HW125195   2.444   2.415   5.090 -0.4954 -0.1900 -0.1253
 7918SOL    HW225196   2.579   2.406   5.159  0.5117 -0.1445 -2.0184
 7919SOL     OW25197   2.646   4.550   5.643 -0.2082 -0.3085  0.2579
 7919SOL    HW125198   2.660   4.638   5.678 -0.0012 -0.6385  1.0288
 7919SOL    HW225199   2.605   4.564   5.558 -2.1706  0.4828  1.2897
 7920SOL     OW25200   3.687   4.346   3.811  0.1955 -0.2954 -0.7871
 7920SOL    HW125201   3.686   4.376   3.902  0.5614  0.9318 -1.1607
 7920SOL    HW225202   3.764   4.291   3.803  1.2354  1.1162 -0.7925
 7921SOL     OW25203   0.383   3.272   3.876 -0.0087 -0.0489  0.1623
 7921SOL    HW125204   0.290   3.288   3.857 -0.0026 -0.9722 -0.7229
 7921SOL    HW225205   0.429   3.311   3.801  0.3488  0.6863  0.7536
 7922SOL     OW25206   2.403   2.359   4.844 -0.5020  0.4341  0.0674
 7922SOL    HW125207   2.475   2.330   4.789 -0.3033 -0.1273  0.6100
 7922SOL    HW225208   2.340   2.397   4.783 -2.1007 -3.6076 -1.1959
 7923SOL     OW25209   3.283   1.954   7.495  0.2337 -0.5634 -0.4371
 7923SOL    HW125210   3.308   1.873   7.449 -0.4651 -1.0853  0.0887
 7923SOL    HW225211   3.260   1.925   7.583 -1.9488 -0.0968 -0.7992
 7924SOL     OW25212   0.808   2.179   5.014  0.3934 -0.0536 -0.2363
 7924SOL    HW125213   0.800   2.208   4.923 -0.9181  1.6460  0.3447
 7924SOL    HW225214   0.821   2.260   5.064  0.3981 -0.8702  1.1550
 7925SOL     OW25215   1.670   3.863   5.045 -0.1162 -0.1897 -0.4100
 7925SOL    HW125216   1.615   3.936   5.073 -0.5065 -0.6505  0.0395
 7925SOL    HW225217   1.760   3.896   5.053  0.0338 -1.0674  3.9640
 7926SOL     OW25218   3.854   1.202   3.478  0.2527  0.1717  0.3429
 7926SOL    HW125219   3.784   1.264   3.493 -1.3936 -0.5755 -3.2249
 7926SOL    HW225220   3.916   1.249   3.422 -0.1683 -0.7746 -0.9734
 7927SOL     OW25221   2.207   3.862   5.107  0.2112 -0.0604  0.7902
 7927SOL    HW125222   2.273   3.819   5.161  0.1863  0.2072  1.0353
 7927SOL    HW225223   2.186   3.798   5.039  0.4784 -0.2738  0.9080
 7928SOL     OW25224   2.930   2.603   3.696  0.0173 -0.0985 -0.5781
 7928SOL    HW125225   2.841   2.636   3.682  0.6304  1.6529 -0.6241
 7928SOL    HW225226   2.983   2.650   3.632  1.3944  1.0097  1.2621
 7929SOL     OW25227   0.382   3.601   6.074 -0.7454 -0.2180  0.5710
 7929SOL    HW125228   0.437   3.638   6.143  1.1562 -1.5084 -0.1994
 7929SOL    HW225229   0.430   3.615   5.993 -1.7578 -0.9850 -0.1979
 7930SOL     OW25230   2.367   3.004   3.931 -0.6553 -0.1655 -0.4117
 7930SOL    HW125231   2.297   3.053   3.974  0.8556  1.2445  0.5339
 7930SOL    HW225232   2.446   3.055   3.948  0.6071 -1.6665 -1.5270
 7931SOL     OW25233   3.519   3.724   4.010  0.4875  0.5497  0.3518
 7931SOL    HW125234   3.549   3.638   4.038  0.5832  0.4393 -0.0979
 7931SOL    HW225235   3.596   3.780   4.017  0.2712  0.7529  1.2742
 7932SOL     OW25236   1.619   5.059   3.814 -0.1953 -0.5337 -0.6618
 7932SOL    HW125237   1.529   5.029   3.824  0.0009 -0.6013  1.3608
 7932SOL    HW225238   1.668   4.981   3.789 -0.2153 -1.3042  1.4616
 7933SOL     OW25239   3.238   1.245   5.903 -0.3130  0.2701 -0.9330
 7933SOL    HW125240   3.177   1.207   5.966 -1.5322  1.0986 -1.5612
 7933SOL    HW225241   3.311   1.183   5.899  0.4192  0.7941  2.1974
 7934SOL     OW25242   3.233   4.012   3.653  0.8499 -0.7903  0.2812
 7934SOL    HW125243   3.263   3.951   3.720  1.7375  0.5593  1.1638
 7934SOL    HW225244   3.137   4.010   3.661  0.8918 -1.5742  0.7371
 7935SOL     OW25245   2.833   2.993   5.354  0.3312 -0.0927  0.7476
 7935SOL    HW125246   2.899   3.057   5.327  0.9663 -1.4367 -1.1172
 7935SOL    HW225247   2.790   2.967   5.272 -1.1552 -0.7076  1.6906
 7936SOL     OW25248   3.976   1.456   5.628  0.0252 -0.7908  0.2251
 7936SOL    HW125249   3.976   1.453   5.533 -0.1265  1.8312  0.0768
 7936SOL    HW225250   4.066   1.433   5.652  0.0878 -1.3875 -0.5328
 7937SOL     OW25251   2.535   2.923   5.368 -0.3569 -0.0512 -0.3836
 7937SOL    HW125252   2.625   2.950   5.387 -1.1418  2.3124  0.3186
 7937SOL    HW225253   2.543   2.830   5.343  2.0154 -0.4696  1.5139
 7938SOL     OW25254   2.711   1.325   4.502  0.5453 -0.1373  0.4722
 7938SOL    HW125255   2.768   1.307   4.577  1.0840  0.2543  0.1642
 7938SOL    HW225256   2.692   1.239   4.465 -0.4450 -0.4139  1.5694
 7939SOL     OW25257   3.299   2.396   4.867 -0.2937 -0.1102  0.0965
 7939SOL    HW125258   3.233   2.411   4.934 -0.5676 -0.8457 -0.0063
 7939SOL    HW225259   3.359   2.471   4.875 -0.6045  0.0637  0.8158
 7940SOL     OW25260   2.835   2.395   4.806 -0.1856  0.6641  0.9440
 7940SOL    HW125261   2.909   2.452   4.830  1.6778 -0.1947 -2.1092
 7940SOL    HW225262   2.841   2.321   4.866  1.3477  0.7425  0.9431
 7941SOL     OW25263   1.348   3.714   4.703 -0.4913 -0.3178  0.1048
 7941SOL    HW125264   1.418   3.679   4.647  0.6482  0.2079  1.1555
 7941SOL    HW225265   1.303   3.777   4.648  0.6055  0.1795 -0.2475
 7942SOL     OW25266   1.821   3.481   4.342  0.6973 -0.2878  0.7673
 7942SOL    HW125267   1.859   3.554   4.391  1.7313 -1.4269  1.7216
 7942SOL    HW225268   1.884   3.465   4.271  0.5605 -0.3700  0.6656
 7943SOL     OW25269   3.464   2.607   4.877  0.3317 -0.1093 -0.3440
 7943SOL    HW125270   3.542   2.663   4.873  0.2172  0.2873  1.7194
 7943SOL    HW225271   3.411   2.636   4.803  0.2182  2.6763  0.7044
 7944SOL     OW25272   3.054   3.143   4.048  0.1151  0.1627  0.3094
 7944SOL    HW125273   3.141   3.103   4.055  0.3512  0.2014 -1.8673
 7944SOL    HW225274   3.071   3.234   4.023 -0.5275  0.6683  1.6137
 7945SOL     OW25275   4.843   7.591   5.185 -0.3367  0.0696 -0.7542
 7945SOL    HW125276   4.877   7.558   5.269  3.9122 -0.6715 -2.4930
 7945SOL    HW225277   4.856   7.519   5.124  0.6930  1.9147 -2.8456
 7946SOL     OW25278   3.602   4.373   4.361 -0.2399 -0.2835 -0.3955
 7946SOL    HW125279   3.667   4.437   4.390 -0.7446  0.8671 -1.6644
 7946SOL    HW225280   3.642   4.288   4.376 -0.8289  0.0446  4.6045
 7947SOL     OW25281   2.508   3.588   6.001 -0.1935  0.2554 -0.3330
 7947SOL    HW125282   2.433   3.573   5.943  0.9464 -0.4140 -1.6951
 7947SOL    HW225283   2.481   3.551   6.085 -1.3427 -0.0599 -0.8148
 7948SOL     OW25284   2.104   3.551   3.804 -0.2720  0.2316 -0.1594
 7948SOL    HW125285   2.127   3.522   3.716 -0.9479 -0.9658  0.0341
 7948SOL    HW225286   2.105   3.471   3.857  2.0438  1.1673  1.3898
 7949SOL     OW25287   1.556   4.548   4.207 -0.8925 -0.3637  0.3307
 7949SOL    HW125288   1.499   4.540   4.283 -1.4149  0.3763  0.0282
 7949SOL    HW225289   1.585   4.639   4.207 -2.4621  0.2092 -1.4143
 7950SOL     OW25290   1.787   4.332   6.070 -0.0540  0.1571 -0.1995
 7950SOL    HW125291   1.772   4.424   6.092  0.3625 -0.0956  1.2335
 7950SOL    HW225292   1.732   4.284   6.133  0.7327 -0.5917 -0.0698
 7951SOL     OW25293   2.770   3.372   5.298 -0.1440 -0.0903  0.3931
 7951SOL    HW125294   2.781   3.317   5.221 -1.1162  1.0567 -0.6047
 7951SOL    HW225295   2.833   3.337   5.362 -0.1541 -1.8023 -0.4775
 7952SOL     OW25296   3.565   4.085   3.988 -0.0162 -0.5134 -0.3543
 7952SOL    HW125297   3.602   4.023   3.925  0.3763  0.0025 -0.6421
 7952SOL    HW225298   3.506   4.139   3.936  0.1444 -0.2226 -0.2391
 7953SOL     OW25299   1.930   2.018   6.023 -0.4634 -0.0792  0.1157
 7953SOL    HW125300   1.858   2.067   5.984  1.1027  3.2554  1.0198
 7953SOL    HW225301   1.946   2.061   6.107  1.1538 -2.1415  0.9693
 7954SOL     OW25302   2.015   2.263   3.365 -0.1265 -0.1302  0.1286
 7954SOL    HW125303   1.952   2.191   3.366  1.1481 -1.3124 -0.8416
 7954SOL    HW225304   1.962   2.342   3.351 -1.3466 -1.1518 -1.3062
 7955SOL     OW25305   2.765   3.566   5.936  0.6414 -0.1291 -0.0544
 7955SOL    HW125306   2.674   3.591   5.953 -0.0160 -1.5245 -1.3299
 7955SOL    HW225307   2.803   3.555   6.023 -0.6520 -0.3484  0.5064
 7956SOL     OW25308   3.086   2.287   4.072  0.6477  0.1788  0.3440
 7956SOL    HW125309   2.998   2.323   4.083  1.2399  1.9926 -0.4523
 7956SOL    HW225310   3.082   2.201   4.113 -1.4883  0.2170  0.3278
 7957SOL     OW25311   1.414   4.443   6.415 -0.4266 -0.2799 -0.3709
 7957SOL    HW125312   1.509   4.431   6.416 -0.2985  0.0636 -2.6645
 7957SOL    HW225313   1.401   4.534   6.438 -0.3229 -0.6310  1.1934
 7958SOL     OW25314   4.560   2.581   5.300 -0.6370 -0.0135  0.1238
 7958SOL    HW125315   4.638   2.607   5.251  1.0638 -1.9624  1.6580
 7958SOL    HW225316   4.562   2.635   5.379 -0.0236 -1.0397  0.8271
 7959SOL     OW25317   5.798   2.202   6.344  0.0553  0.1941 -0.1375
 7959SOL    HW125318   5.759   2.195   6.257 -1.1848  0.0278  0.4138
 7959SOL    HW225319   5.854   2.279   6.338  0.5739 -0.2383 -1.2881
 7960SOL     OW25320   2.005   4.201   2.777 -0.5185  0.5147  0.4134
 7960SOL    HW125321   2.089   4.239   2.803  0.1722 -0.5127 -0.2441
 7960SOL    HW225322   2.021   4.106   2.777 -0.2207  0.3495 -4.2397
 7961SOL     OW25323   2.593   2.287   5.371 -0.1279 -0.2762  0.4948
 7961SOL    HW125324   2.640   2.309   5.451 -1.6566 -0.4654  1.4836
 7961SOL    HW225325   2.514   2.342   5.373 -0.7501 -1.0949 -0.2979
 7962SOL     OW25326   3.392   2.485   3.656 -0.5729 -0.2021  0.0713
 7962SOL    HW125327   3.385   2.567   3.706 -1.5555  0.2076 -0.6997
 7962SOL    HW225328   3.401   2.417   3.722  0.6907  0.5631  0.7179
 7963SOL     OW25329   3.545   1.650   5.686 -0.3794 -0.1892 -0.9292
 7963SOL    HW125330   3.593   1.601   5.753 -2.2021 -0.0580  0.5656
 7963SOL    HW225331   3.603   1.722   5.663 -0.0175  0.2597  1.1806
 7964SOL     OW25332   0.762   3.564   3.586 -0.1911 -0.0242  0.0631
 7964SOL    HW125333   0.687   3.608   3.627 -0.1052  0.2538 -0.0697
 7964SOL    HW225334   0.724   3.490   3.539 -0.1066 -1.5456  2.2182
 7965SOL     OW25335   1.689   0.412   3.407 -0.1608 -0.5807 -0.0826
 7965SOL    HW125336   1.649   0.325   3.404  0.3875 -0.8463  0.2305
 7965SOL    HW225337   1.753   0.407   3.478  0.2482 -0.0813 -0.4104
 7966SOL     OW25338   1.541   3.597   3.665  0.4388  0.6318  0.2497
 7966SOL    HW125339   1.533   3.502   3.663  0.3281  0.6437  0.1062
 7966SOL    HW225340   1.612   3.614   3.728  0.7806  0.4367 -0.0807
 7967SOL     OW25341   2.316   3.225   4.478  0.0774 -0.2516 -0.2260
 7967SOL    HW125342   2.362   3.258   4.555  5.1738 -2.2989 -1.9954
 7967SOL    HW225343   2.307   3.301   4.420  0.3822  0.4015  0.5738
 7968SOL     OW25344   3.953   1.940   3.134  0.5242  0.2751  0.3713
 7968SOL    HW125345   3.954   1.971   3.043 -0.8607 -1.6039 -0.3539
 7968SOL    HW225346   4.019   1.871   3.136  1.9853  1.6201  1.3840
 7969SOL     OW25347   2.159   1.770   4.141  0.1053  0.2984 -0.2146
 7969SOL    HW125348   2.171   1.715   4.064  0.2985 -0.0087  0.0327
 7969SOL    HW225349   2.248   1.795   4.167  0.0220  0.6805 -0.2936
 7970SOL     OW25350   2.486   3.696   4.399  0.1054 -0.0143  0.1126
 7970SOL    HW125351   2.570   3.701   4.354 -0.0479  0.1247 -0.1648
 7970SOL    HW225352   2.482   3.775   4.453 -0.6805  1.0066 -1.3709
 7971SOL     OW25353   3.686   4.330   4.084  0.0003  0.2534 -0.0722
 7971SOL    HW125354   3.622   4.262   4.105 -1.1398  0.8599 -1.4134
 7971SOL    HW225355   3.689   4.386   4.162  0.8697 -1.2266  0.9981
 7972SOL     OW25356   1.518   3.743   5.961 -0.0882 -0.2516 -0.6918
 7972SOL    HW125357   1.469   3.804   5.905 -1.1242 -1.0751 -0.7272
 7972SOL    HW225358   1.604   3.783   5.971 -1.0745  1.7726  0.2173
 7973SOL     OW25359   3.677   3.926   5.025  0.6783 -0.3027  0.0828
 7973SOL    HW125360   3.640   4.007   5.060  1.0512  0.1041 -0.4364
 7973SOL    HW225361   3.601   3.873   5.000  0.4211  0.7545 -1.5000
 7974SOL     OW25362   3.241   1.505   4.697  0.6340  0.5350  0.4660
 7974SOL    HW125363   3.331   1.508   4.663 -0.1035  0.1643 -1.6896
 7974SOL    HW225364   3.248   1.458   4.780  2.3474  0.0088  0.0692
 7975SOL     OW25365   2.851   3.382   4.917 -0.8229 -0.3990  0.2954
 7975SOL    HW125366   2.831   3.358   4.827 -0.3257  0.1499  0.0315
 7975SOL    HW225367   2.944   3.363   4.927 -1.0654 -1.3299  0.9870
 7976SOL     OW25368   3.833   2.533   4.367 -0.1692 -0.0177 -0.0112
 7976SOL    HW125369   3.756   2.479   4.385  1.0524 -1.9621 -0.3099
 7976SOL    HW225370   3.797   2.616   4.335 -2.1319 -0.4664  0.8791
 7977SOL     OW25371   2.020   1.261   4.129 -0.4396  0.3392  0.0035
 7977SOL    HW125372   1.967   1.319   4.074 -1.7797 -0.1100  0.7652
 7977SOL    HW225373   2.110   1.281   4.106 -0.8361  2.9468  0.4941
 7978SOL     OW25374   3.120   2.778   4.743  0.1457  0.2505  0.6584
 7978SOL    HW125375   3.069   2.798   4.664 -0.6094 -0.0760  1.0482
 7978SOL    HW225376   3.208   2.759   4.710 -0.3620 -0.7350 -0.2061
 7979SOL     OW25377   3.724   2.409   4.869  0.4058 -0.2329 -0.6334
 7979SOL    HW125378   3.807   2.402   4.821  1.1528 -0.5509  0.6546
 7979SOL    HW225379   3.718   2.502   4.893  0.6048 -0.2864 -0.3704
 7980SOL     OW25380   4.903   1.989   4.987 -0.1970  0.2882  0.5051
 7980SOL    HW125381   4.977   2.048   4.999 -1.4500  2.1317 -0.3703
 7980SOL    HW225382   4.904   1.968   4.894 -1.3401  1.1571  0.2803
 7981SOL     OW25383   0.262   4.875   4.471  0.7017  0.2540  0.1988
 7981SOL    HW125384   0.303   4.910   4.550  3.0543  0.6766 -1.1158
 7981SOL    HW225385   0.324   4.894   4.401 -2.5475  2.6159 -2.3843
 7982SOL     OW25386   3.145   2.978   4.277 -0.6777  0.9973 -0.1572
 7982SOL    HW125387   3.228   2.965   4.324 -1.4944 -1.0094  0.8531
 7982SOL    HW225388   3.147   3.069   4.250  2.6273  0.6095 -1.7041
 7983SOL     OW25389   4.082   2.619   3.569  0.8741  0.1094  0.3154
 7983SOL    HW125390   4.158   2.569   3.599  1.1266  1.2219  1.6381
 7983SOL    HW225391   4.116   2.676   3.501  1.5046  1.3370  1.5986
 7984SOL     OW25392   3.743   2.111   4.202  0.3279  0.0760  0.0365
 7984SOL    HW125393   3.758   2.132   4.110 -0.3602  0.9382  0.1132
 7984SOL    HW225394   3.704   2.190   4.239 -3.6166 -1.6156  0.0443
 7985SOL     OW25395   3.083   3.422   4.227  0.1519  0.2753 -0.5174
 7985SOL    HW125396   3.078   3.421   4.131 -0.9793  2.4954 -0.5528
 7985SOL    HW225397   3.163   3.472   4.246  0.6101 -0.5319 -0.2804
 7986SOL     OW25398   3.286   2.469   6.299 -0.6622 -0.0541 -0.0639
 7986SOL    HW125399   3.293   2.375   6.284  0.2390 -0.1689  0.9486
 7986SOL    HW225400   3.206   2.495   6.253 -1.9446 -1.6446  1.1375
 7987SOL     OW25401   3.403   1.503   2.959  0.5630 -0.3862  0.2851
 7987SOL    HW125402   3.364   1.416   2.953 -0.1322 -0.1327  0.9493
 7987SOL    HW225403   3.384   1.545   2.875  0.6395 -0.7635  0.0799
 7988SOL     OW25404   2.942   3.160   4.435  0.0777 -0.8759 -0.7355
 7988SOL    HW125405   3.037   3.171   4.428 -0.1107  0.3390 -2.0632
 7988SOL    HW225406   2.909   3.189   4.350 -1.7646  2.7825  0.9914
 7989SOL     OW25407   2.369   7.745   4.750  0.4272 -0.2046 -0.7587
 7989SOL    HW125408   2.279   7.733   4.717  0.7355 -0.3431 -1.5746
 7989SOL    HW225409   2.373   7.837   4.774 -0.5419 -0.6102  1.1884
 7990SOL     OW25410   2.195   0.957   4.614 -0.0964  0.2921 -0.2844
 7990SOL    HW125411   2.284   0.982   4.587 -0.0402 -0.0858 -0.4589
 7990SOL    HW225412   2.200   0.863   4.628  0.2247  0.6205  2.3863
 7991SOL     OW25413   2.471   3.501   6.262 -0.3446 -0.0259  0.2118
 7991SOL    HW125414   2.562   3.487   6.237 -0.1764  0.9471  0.2134
 7991SOL    HW225415   2.476   3.534   6.352 -0.5347  1.8439 -0.4140
 7992SOL     OW25416   4.491   2.970   5.134 -0.2765 -0.2905 -0.3464
 7992SOL    HW125417   4.436   2.892   5.139 -0.6488 -0.0485 -0.6009
 7992SOL    HW225418   4.434   3.038   5.098 -0.1244  0.2578  0.4210
 7993SOL     OW25419   1.331   2.939   5.120  0.1900  0.0232 -0.0170
 7993SOL    HW125420   1.243   2.976   5.129 -0.1215 -0.8134  0.3866
 7993SOL    HW225421   1.331   2.898   5.034 -0.3336 -1.3165  0.5947
 7994SOL     OW25422   2.252   3.127   5.748  0.3006 -0.0978  0.6120
 7994SOL    HW125423   2.246   3.053   5.688  0.4457  1.3059 -1.1989
 7994SOL    HW225424   2.344   3.128   5.776  0.6374  0.1947 -0.4562
 7995SOL     OW25425   2.501   2.721   4.788  0.2489  0.0920  0.3137
 7995SOL    HW125426   2.567   2.760   4.729  0.3564  1.4423  1.2840
 7995SOL    HW225427   2.547   2.651   4.832 -0.2090 -1.9449 -2.1823
 7996SOL     OW25428   3.322   3.542   4.178  0.5849  0.0779  0.5588
 7996SOL    HW125429   3.411   3.508   4.188  0.1543 -1.3626 -0.1645
 7996SOL    HW225430   3.318   3.575   4.089  0.6454  0.9991  0.8846
 7997SOL     OW25431   2.257   3.413   4.979  0.3551 -0.8459 -0.2951
 7997SOL    HW125432   2.341   3.420   5.024  1.1640  1.2276 -1.9614
 7997SOL    HW225433   2.229   3.503   4.965 -1.9367 -1.4830 -0.2220
 7998SOL     OW25434   3.682   2.564   3.009 -0.4650 -0.0666  0.1235
 7998SOL    HW125435   3.654   2.654   3.024 -3.3450 -1.0824  1.5917
 7998SOL    HW225436   3.611   2.524   2.958 -0.2105 -1.9634  1.1329
 7999SOL     OW25437   0.866   2.377   5.766 -0.3208 -0.0184  0.2928
 7999SOL    HW125438   0.783   2.329   5.766 -1.2327  1.4885  0.2381
 7999SOL    HW225439   0.842   2.467   5.788  1.4856  0.1900  1.6234
 8000SOL     OW25440   2.735   0.620   4.724 -0.0483 -0.0923  0.0721
 8000SOL    HW125441   2.650   0.584   4.747 -0.9622  1.8808 -0.0155
 8000SOL    HW225442   2.784   0.619   4.806 -0.7500  0.2755  0.5078
 8001SOL     OW25443   4.026   0.858   5.470  0.8910 -0.0776  0.2916
 8001SOL    HW125444   4.077   0.895   5.542  0.6815  0.4358  0.1868
 8001SOL    HW225445   4.060   0.770   5.458  0.4914 -0.4100  1.4558
 8002SOL     OW25446   1.909   1.209   4.380 -0.2742 -0.0417 -0.2326
 8002SOL    HW125447   1.948   1.246   4.301  0.6739 -1.4671 -0.4696
 8002SOL    HW225448   1.970   1.234   4.450 -0.8330  0.7634 -0.0219
 8003SOL     OW25449   4.078   1.422   5.058  0.4095  0.0170  0.3358
 8003SOL    HW125450   4.095   1.329   5.042  1.5727  0.1165  0.9033
 8003SOL    HW225451   3.983   1.431   5.048  0.1949 -1.3493  0.8932
 8004SOL     OW25452   2.762   3.631   3.917 -0.7198 -0.7250  0.3723
 8004SOL    HW125453   2.733   3.658   4.004 -0.6380 -1.7424  0.7354
 8004SOL    HW225454   2.850   3.668   3.909 -0.7907 -0.4919  0.6588
 8005SOL     OW25455   4.070   1.551   4.461 -0.6790  0.4421 -0.1440
 8005SOL    HW125456   4.040   1.526   4.549 -1.9858 -0.7900 -0.8846
 8005SOL    HW225457   4.003   1.611   4.429 -0.8720 -0.0733 -0.7405
 8006SOL     OW25458   2.162   1.812   3.491  0.5264  0.1949  0.3261
 8006SOL    HW125459   2.233   1.860   3.533 -0.9608  1.7541  1.1951
 8006SOL    HW225460   2.151   1.733   3.544  0.8553  0.5181  0.8872
 8007SOL     OW25461   1.174   3.466   5.304  0.9799 -0.0188  0.0142
 8007SOL    HW125462   1.246   3.500   5.358  1.2655  0.7119 -0.8042
 8007SOL    HW225463   1.210   3.387   5.264  1.3901  0.4343 -0.5193
 8008SOL     OW25464   2.709   7.489   6.813  0.2371  0.4650 -0.0735
 8008SOL    HW125465   2.651   7.563   6.827 -0.5176  0.0820 -1.0517
 8008SOL    HW225466   2.678   7.422   6.873 -1.4400 -0.3228 -1.7221
 8009SOL     OW25467   3.894   1.726   4.382 -0.4286 -0.7166  0.1617
 8009SOL    HW125468   3.898   1.822   4.389  1.1555 -0.7950  0.5603
 8009SOL    HW225469   3.800   1.706   4.388 -0.6278  0.6129  2.9904
 8010SOL     OW25470   3.715   2.677   5.132 -0.0150 -0.0438 -0.3714
 8010SOL    HW125471   3.809   2.665   5.126 -0.1080 -1.1513  0.2072
 8010SOL    HW225472   3.699   2.764   5.093  1.1226 -0.2320 -1.3026
 8011SOL     OW25473   4.070   2.351   5.432  0.7979  0.9266 -0.4959
 8011SOL    HW125474   4.097   2.265   5.466 -1.1353  0.6892  0.5792
 8011SOL    HW225475   4.149   2.386   5.391  1.5258 -1.5961 -1.4795
 8012SOL     OW25476   2.854   2.406   4.116 -0.2194 -0.4363  0.4154
 8012SOL    HW125477   2.842   2.489   4.069  1.3506 -1.5024 -2.1419
 8012SOL    HW225478   2.786   2.349   4.080  2.3804 -1.9613 -2.6445
 8013SOL     OW25479   2.571   3.057   4.308 -0.1157  0.0638 -0.6188
 8013SOL    HW125480   2.595   3.126   4.369  0.5829 -0.3970 -0.3571
 8013SOL    HW225481   2.485   3.027   4.338  0.6748 -0.8825  0.8197
 8014SOL     OW25482   1.878   3.355   6.011  0.0778  0.1802 -0.8421
 8014SOL    HW125483   1.863   3.267   5.975 -0.3438  0.8316 -2.3528
 8014SOL    HW225484   1.791   3.387   6.034  0.2959 -0.0298  0.3429
 8015SOL     OW25485   4.411   3.678   4.709  0.3826 -0.0128  0.3640
 8015SOL    HW125486   4.325   3.671   4.751  1.5548  0.7466  3.1255
 8015SOL    HW225487   4.438   3.588   4.694 -0.1424 -0.3335  1.2384
 8016SOL     OW25488   1.711   2.807   6.248 -0.2026  0.2555  0.0150
 8016SOL    HW125489   1.630   2.817   6.299 -0.8488 -2.2575 -0.4243
 8016SOL    HW225490   1.776   2.777   6.311  0.0192  0.8179  0.0650
 8017SOL     OW25491   3.686   2.934   3.548 -0.3213  0.0227  0.3278
 8017SOL    HW125492   3.643   2.908   3.630  0.8962  0.8241  1.2519
 8017SOL    HW225493   3.778   2.915   3.562  0.1515  1.7507 -0.1717
 8018SOL     OW25494   1.358   4.294   4.243 -1.1872  0.5827  0.0054
 8018SOL    HW125495   1.401   4.360   4.298 -1.7756  1.5343 -0.6548
 8018SOL    HW225496   1.422   4.276   4.174 -2.0751  2.5932 -1.4398
 8019SOL     OW25497   4.298   3.374   4.629  0.0330  0.5708 -0.2856
 8019SOL    HW125498   4.287   3.365   4.534  0.9389  0.0925 -0.3544
 8019SOL    HW225499   4.386   3.409   4.640 -1.3576  4.3189  0.2545
 8020SOL     OW25500   2.685   2.966   5.019  0.3482 -0.0644 -0.1587
 8020SOL    HW125501   2.704   2.879   4.983  0.9362 -0.7397  1.6788
 8020SOL    HW225502   2.590   2.967   5.030  0.3855 -0.6708  0.2665
 8021SOL     OW25503   1.489   3.649   5.107  0.1269 -0.1713  0.7813
 8021SOL    HW125504   1.488   3.644   5.202  1.0861 -1.5795  0.7473
 8021SOL    HW225505   1.564   3.705   5.086 -0.4300  0.6202  0.8412
 8022SOL     OW25506   2.891   3.262   5.531  0.4058  0.0243 -0.2870
 8022SOL    HW125507   2.938   3.300   5.604 -1.1299 -0.2153  0.8825
 8022SOL    HW225508   2.936   3.179   5.514 -0.3065 -0.8252  1.6589
 8023SOL     OW25509   3.351   2.023   3.197  0.2175 -0.1095  0.1691
 8023SOL    HW125510   3.384   2.084   3.263 -2.5798 -1.1301  2.7470
 8023SOL    HW225511   3.390   1.939   3.221 -0.1598 -0.3308  0.0084
 8024SOL     OW25512   0.714   4.698   4.264 -0.5467  0.1935 -0.1431
 8024SOL    HW125513   0.636   4.667   4.310  0.6948 -0.9057  1.3040
 8024SOL    HW225514   0.761   4.751   4.329 -0.4812  1.5895 -1.2674
 8025SOL     OW25515   0.819   2.090   6.283 -0.1486 -0.2663  0.3724
 8025SOL    HW125516   0.856   2.056   6.364  1.2238 -2.8220 -1.1876
 8025SOL    HW225517   0.891   2.134   6.240 -0.0484 -1.4110 -0.6938
 8026SOL     OW25518   3.368   4.727   3.654 -0.1834  0.1707 -0.0294
 8026SOL    HW125519   3.452   4.688   3.632 -0.6253 -0.8031 -0.0146
 8026SOL    HW225520   3.360   4.717   3.749 -0.0837  0.7366  0.0413
 8027SOL     OW25521   3.397   2.778   4.677  0.2730 -0.0277  0.4734
 8027SOL    HW125522   3.462   2.809   4.740 -1.2322  0.5453  1.8298
 8027SOL    HW225523   3.419   2.821   4.595  0.9770  0.9726  1.1687
 8028SOL     OW25524   4.322   0.602   5.753 -0.2421 -0.2715 -0.3141
 8028SOL    HW125525   4.306   0.512   5.725 -1.2714  0.2309 -1.4512
 8028SOL    HW225526   4.303   0.602   5.847 -2.4286 -0.7756 -0.7082
 8029SOL     OW25527   1.577   3.046   4.247  0.1961 -0.2398 -0.4605
 8029SOL    HW125528   1.496   3.032   4.295 -0.0571 -0.4497 -0.9400
 8029SOL    HW225529   1.606   3.134   4.272 -0.1599 -0.1796 -0.2631
 8030SOL     OW25530   4.059   2.458   6.427  0.5101  0.2846 -0.2599
 8030SOL    HW125531   4.019   2.463   6.513  0.3048  1.9531 -0.4247
 8030SOL    HW225532   3.986   2.458   6.365  0.6517 -0.9851 -0.4718
 8031SOL     OW25533   3.228   2.417   5.141  0.4910  0.0863  0.4134
 8031SOL    HW125534   3.302   2.400   5.200 -0.6793 -0.9162  1.6523
 8031SOL    HW225535   3.154   2.435   5.199 -0.4480  0.2011 -0.7702
 8032SOL     OW25536   2.877   1.945   3.645 -0.3562 -0.3446  0.1047
 8032SOL    HW125537   2.881   2.030   3.603 -0.5887 -0.1775  0.4164
 8032SOL    HW225538   2.906   1.883   3.578  0.9063  0.0925  0.2196
 8033SOL     OW25539   1.695   3.602   5.643  0.4079  0.1311 -0.2348
 8033SOL    HW125540   1.677   3.681   5.591  1.6871  1.1457  0.7978
 8033SOL    HW225541   1.765   3.558   5.596  0.8275  0.4819  0.0620
 8034SOL     OW25542   2.167   0.315   4.529  0.6423 -0.2290  0.1938
 8034SOL    HW125543   2.241   0.334   4.470  1.2476 -0.3724  0.8965
 8034SOL    HW225544   2.132   0.401   4.552  1.5769 -0.0659  1.0901
 8035SOL     OW25545   0.626   5.509   5.268  0.4189  0.5236 -0.6032
 8035SOL    HW125546   0.642   5.536   5.358  0.6357 -0.3696 -0.3688
 8035SOL    HW225547   0.582   5.424   5.275  1.3818 -0.0601 -1.3460
 8036SOL     OW25548   3.681   2.220   3.609 -0.0527 -0.0028  0.3125
 8036SOL    HW125549   3.688   2.314   3.594  1.2399 -0.1998 -0.5282
 8036SOL    HW225550   3.710   2.208   3.700  1.7580  0.2277 -0.2026
 8037SOL     OW25551   1.839   4.039   5.750 -0.3223 -0.2365  0.0557
 8037SOL    HW125552   1.907   4.095   5.787 -0.1641 -0.8711  0.7619
 8037SOL    HW225553   1.876   4.008   5.668 -0.4597  0.7727 -0.4033
 8038SOL     OW25554   4.441   2.412   4.854  0.2451 -0.0330  0.0404
 8038SOL    HW125555   4.436   2.419   4.949  1.0260 -0.9756  0.1723
 8038SOL    HW225556   4.448   2.503   4.823  1.8511  0.2102  1.0230
 8039SOL     OW25557   2.235   2.512   4.245 -0.2181  0.2360 -0.1692
 8039SOL    HW125558   2.284   2.445   4.294 -0.2968 -0.6628 -1.2919
 8039SOL    HW225559   2.188   2.560   4.313 -0.1293 -0.8201  0.6793
 8040SOL     OW25560   3.856   3.106   4.494  0.4394 -0.7717 -0.9158
 8040SOL    HW125561   3.800   3.163   4.442 -0.6372 -0.3461  0.6280
 8040SOL    HW225562   3.940   3.151   4.497  0.1062 -0.1184 -1.1443
 8041SOL     OW25563   3.423   3.782   4.936  0.1487  0.6178 -0.3700
 8041SOL    HW125564   3.474   3.701   4.936  0.6387  0.8987  1.2524
 8041SOL    HW225565   3.333   3.754   4.916  0.3845 -0.2620 -0.2407
 8042SOL     OW25566   2.649   3.268   4.449 -0.0236  0.2554  1.1898
 8042SOL    HW125567   2.602   3.348   4.471 -0.6198 -0.0053  0.8990
 8042SOL    HW225568   2.714   3.295   4.384 -1.6534  0.1728 -0.5811
 8043SOL     OW25569   1.702   4.334   4.571 -0.3180 -0.3245 -0.4972
 8043SOL    HW125570   1.624   4.333   4.627 -0.1542  0.4689 -0.2354
 8043SOL    HW225571   1.723   4.242   4.556 -2.0841 -0.5923 -1.6726
 8044SOL     OW25572   4.496   1.937   4.957 -0.4484 -0.4795 -0.4093
 8044SOL    HW125573   4.567   1.937   5.021 -1.1473  3.5635  0.6289
 8044SOL    HW225574   4.429   1.880   4.995  0.1664 -0.1607  1.2061
 8045SOL     OW25575   3.711   3.575   4.381 -0.1177 -0.2408 -0.9719
 8045SOL    HW125576   3.639   3.633   4.405 -0.0021  0.0758 -1.3671
 8045SOL    HW225577   3.790   3.626   4.400  0.0460 -0.9896  0.4966
 8046SOL     OW25578   3.284   3.581   7.143 -0.7961 -0.6854  0.7761
 8046SOL    HW125579   3.318   3.565   7.055 -2.6024 -1.7417  0.2343
 8046SOL    HW225580   3.361   3.577   7.200  0.3501 -0.3085 -0.6959
 8047SOL     OW25581   3.184   3.254   4.485  0.1929 -0.5099 -0.0242
 8047SOL    HW125582   3.231   3.305   4.550  1.2061 -0.9203 -0.4201
 8047SOL    HW225583   3.225   3.277   4.402  0.6407 -1.9189 -0.2173
 8048SOL     OW25584   3.068   1.451   5.525 -0.0143 -0.1457 -0.3703
 8048SOL    HW125585   3.008   1.494   5.463 -0.5402 -1.0124 -0.4801
 8048SOL    HW225586   3.137   1.415   5.469  0.0561 -0.0474 -0.3470
 8049SOL     OW25587   0.974   4.719   3.724  0.3883 -0.4828 -0.5303
 8049SOL    HW125588   1.007   4.639   3.683  1.4963 -0.8314  0.9413
 8049SOL    HW225589   0.927   4.688   3.802 -0.0991  0.2582 -0.5178
 8050SOL     OW25590   3.722   3.217   5.127  0.1030  0.4362  0.3763
 8050SOL    HW125591   3.741   3.240   5.218 -0.1675  1.7441  0.1230
 8050SOL    HW225592   3.632   3.249   5.113  0.2528  0.5149 -0.4277
 8051SOL     OW25593   3.453   2.223   4.049 -0.1833  0.1371 -0.8494
 8051SOL    HW125594   3.448   2.213   4.144 -0.5326 -2.7923 -1.0863
 8051SOL    HW225595   3.415   2.309   4.032  0.6455  1.0903  1.6996
 8052SOL     OW25596   3.507   2.258   5.284 -0.0566  0.4245 -0.4477
 8052SOL    HW125597   3.534   2.214   5.203  0.1803  0.2506 -0.2741
 8052SOL    HW225598   3.549   2.344   5.280 -0.7201  0.7442 -0.9077
 8053SOL     OW25599   0.865   2.911   4.831  0.3482  0.0349  0.0777
 8053SOL    HW125600   0.928   2.852   4.790 -0.8518 -1.2279 -0.0015
 8053SOL    HW225601   0.915   2.957   4.898  1.8177  0.5072 -1.2650
 8054SOL     OW25602   3.115   3.097   5.444  0.0963  0.0241 -0.0881
 8054SOL    HW125603   3.123   3.079   5.351  1.4161  0.7148 -0.1249
 8054SOL    HW225604   3.178   3.038   5.486 -1.1608 -0.9730  0.4760
 8055SOL     OW25605   2.229   2.836   6.055 -0.2056 -0.2546  0.5956
 8055SOL    HW125606   2.299   2.806   5.996  0.3146 -0.3692  1.2611
 8055SOL    HW225607   2.262   2.818   6.143 -0.2009  1.5575  1.0019
 8056SOL     OW25608   1.898   4.129   3.483  0.1411  0.0791  0.2654
 8056SOL    HW125609   1.846   4.206   3.460 -2.2059 -1.8962 -1.6883
 8056SOL    HW225610   1.959   4.119   3.410  0.2682 -0.0461  0.3879
 8057SOL     OW25611   2.911   1.057   4.811 -0.4871  0.4046 -0.4541
 8057SOL    HW125612   2.971   0.982   4.813  0.1320  0.9137  1.5115
 8057SOL    HW225613   2.958   1.124   4.761 -1.0911 -0.5001 -2.3266
 8058SOL     OW25614   3.008   3.169   3.138 -0.3639  0.0428  0.1676
 8058SOL    HW125615   3.003   3.181   3.043 -0.5833  1.9358  0.3620
 8058SOL    HW225616   2.962   3.246   3.174  0.1617 -0.3615  1.8118
 8059SOL     OW25617   4.265   3.296   5.291 -0.1137 -0.1787  0.5284
 8059SOL    HW125618   4.176   3.286   5.327 -0.3054  1.8038  0.7102
 8059SOL    HW225619   4.251   3.319   5.199  0.2284 -0.1861  0.4732
 8060SOL     OW25620   0.846   2.012   4.240 -0.1012 -0.1808 -0.0932
 8060SOL    HW125621   0.870   1.968   4.158  0.7454  0.8320 -0.4179
 8060SOL    HW225622   0.831   2.104   4.214 -1.1016 -0.1099  0.6807
 8061SOL     OW25623   2.798   3.718   6.206 -0.3786 -0.4639  0.2026
 8061SOL    HW125624   2.728   3.655   6.219 -0.3743 -0.5884 -0.3302
 8061SOL    HW225625   2.794   3.776   6.282 -0.6465 -0.8579  0.4868
 8062SOL     OW25626   4.465   0.582   4.575  0.1926 -0.2732  0.5108
 8062SOL    HW125627   4.373   0.605   4.585 -0.1297 -0.9932 -0.6009
 8062SOL    HW225628   4.471   0.491   4.606  0.0653 -0.9627 -1.3207
 8063SOL     OW25629   1.888   2.743   4.614  0.0664  0.3141 -0.1575
 8063SOL    HW125630   1.867   2.836   4.602 -0.6135 -0.0540 -2.2794
 8063SOL    HW225631   1.813   2.707   4.661 -0.4758  0.5134 -0.8588
 8064SOL     OW25632   3.803   3.108   4.789  0.2324 -0.6764 -0.4574
 8064SOL    HW125633   3.786   3.098   4.696 -0.9939  0.1572 -0.3439
 8064SOL    HW225634   3.756   3.187   4.814 -0.3136 -1.4475  1.0753
 8065SOL     OW25635   3.710   1.986   3.458  0.4807  0.0665  0.3808
 8065SOL    HW125636   3.710   1.935   3.539  0.3087  0.6694  0.7742
 8065SOL    HW225637   3.704   2.077   3.488 -0.3150  0.2576 -0.3292
 8066SOL     OW25638   1.396   4.173   4.840 -0.3124 -0.1073  0.4450
 8066SOL    HW125639   1.462   4.238   4.817 -2.2036  1.5129 -0.7387
 8066SOL    HW225640   1.363   4.141   4.756 -1.3378 -0.5349  0.9827
 8067SOL     OW25641   3.985   2.721   4.755  0.3882 -0.6636  0.1742
 8067SOL    HW125642   4.049   2.733   4.684  1.8103 -2.6703  1.0327
 8067SOL    HW225643   3.997   2.798   4.811  1.8576 -0.8608  0.1664
 8068SOL     OW25644   2.815   4.124   4.339 -0.1151  0.8971  0.5243
 8068SOL    HW125645   2.804   4.034   4.310 -0.3508  1.0552  0.1182
 8068SOL    HW225646   2.909   4.141   4.328 -0.1735  0.9037 -0.0106
 8069SOL     OW25647   2.301   2.958   4.427 -0.3950 -0.8691  0.0002
 8069SOL    HW125648   2.309   3.053   4.419 -0.6899 -0.8746 -0.3787
 8069SOL    HW225649   2.232   2.944   4.491  0.9533 -0.8305  1.5364
 8070SOL     OW25650   2.375   1.803   5.043 -0.4503  0.2937  0.0600
 8070SOL    HW125651   2.385   1.754   5.124  0.1019  0.3557  0.0337
 8070SOL    HW225652   2.397   1.740   4.974 -0.4801  0.3638 -0.0140
 8071SOL     OW25653   1.775   4.132   6.855 -0.2267 -1.0894 -0.1731
 8071SOL    HW125654   1.856   4.084   6.871  0.3031 -0.7522 -1.6881
 8071SOL    HW225655   1.756   4.118   6.762 -1.8930 -1.1221  0.1310
 8072SOL     OW25656   2.821   3.007   3.593  0.0092  0.2365 -0.5233
 8072SOL    HW125657   2.885   3.062   3.547 -1.2366  2.0550 -0.1834
 8072SOL    HW225658   2.864   2.987   3.677 -0.1021  2.0427  0.0039
 8073SOL     OW25659   3.237   3.790   4.577 -0.5990 -0.1201  0.5980
 8073SOL    HW125660   3.229   3.784   4.672  0.4499  0.9485  0.7836
 8073SOL    HW225661   3.153   3.824   4.548 -1.2067 -1.1998  1.0538
 8074SOL     OW25662   1.164   4.005   4.993  1.0376  0.3759  0.6279
 8074SOL    HW125663   1.176   3.914   4.966  0.9634  0.6035 -0.1881
 8074SOL    HW225664   1.232   4.053   4.946 -0.0974  1.0022 -0.4295
 8075SOL     OW25665   2.023   2.197   5.301 -0.2954 -0.0870 -0.4240
 8075SOL    HW125666   2.049   2.105   5.297 -0.6785 -0.2266  0.1388
 8075SOL    HW225667   2.091   2.244   5.252  0.9784 -0.4390  0.9375
 8076SOL     OW25668   3.094   3.265   4.883 -0.2362  0.1686  0.1634
 8076SOL    HW125669   3.147   3.243   4.960 -0.0387  0.8587  0.2272
 8076SOL    HW225670   3.124   3.205   4.815  1.4833  1.3212 -0.1628
 8077SOL     OW25671   1.977   3.036   4.287  0.6621 -0.0227 -0.4097
 8077SOL    HW125672   1.972   3.127   4.257 -1.4495  0.1495  0.3227
 8077SOL    HW225673   1.944   3.039   4.377 -2.6504 -1.9563 -1.4352
 8078SOL     OW25674   2.528   0.686   4.159 -0.2607 -0.2712 -0.2176
 8078SOL    HW125675   2.457   0.657   4.216 -0.8889  0.1100 -0.7845
 8078SOL    HW225676   2.503   0.653   4.072  0.9134 -1.2605 -0.2138
 8079SOL     OW25677   1.807   1.413   5.034 -0.2895 -0.8144  0.3945
 8079SOL    HW125678   1.735   1.475   5.027 -0.1017 -0.5537  0.7314
 8079SOL    HW225679   1.814   1.374   4.947 -0.7576 -0.7553  0.3307
 8080SOL     OW25680   2.028   2.904   3.309 -0.3003  0.0179 -0.4911
 8080SOL    HW125681   1.957   2.967   3.324 -0.1292  0.2228 -0.5383
 8080SOL    HW225682   1.991   2.841   3.246 -0.0210  0.8462 -1.5233
 8081SOL     OW25683   3.631   3.291   4.412  0.2485 -0.3051  0.1334
 8081SOL    HW125684   3.599   3.275   4.323 -2.8788 -1.6876  1.3603
 8081SOL    HW225685   3.652   3.384   4.413  3.1455 -0.7149 -2.7229
 8082SOL     OW25686   2.127   2.931   5.392 -0.4315  0.2999 -0.3972
 8082SOL    HW125687   2.044   2.975   5.378 -0.6419 -0.0387 -0.2269
 8082SOL    HW225688   2.189   2.976   5.334 -1.1321 -0.6609 -1.9426
 8083SOL     OW25689   0.020   4.978   4.390  0.7736 -0.5645  0.2085
 8083SOL    HW125690  -0.031   4.933   4.458 -1.1485  1.6430  0.3364
 8083SOL    HW225691   0.110   4.949   4.406  0.0491 -2.0331  2.1099
 8084SOL     OW25692   3.046   2.307   4.535 -0.4126 -0.2481  0.0200
 8084SOL    HW125693   3.001   2.311   4.620  0.0539  0.3759  0.2444
 8084SOL    HW225694   3.138   2.317   4.557 -0.1375 -1.5846 -0.4295
 8085SOL     OW25695   3.305   2.237   5.487 -0.4252  0.0795  0.0146
 8085SOL    HW125696   3.363   2.227   5.412 -1.3151  0.1102 -0.6926
 8085SOL    HW225697   3.255   2.316   5.469  0.9142  1.4192  1.7398
 8086SOL     OW25698   4.190   1.005   4.611  0.3338  0.0894 -0.4272
 8086SOL    HW125699   4.115   0.950   4.586 -0.0750  0.8848 -0.9868
 8086SOL    HW225700   4.267   0.955   4.584  0.0348 -0.8866  0.4385
 8087SOL     OW25701   3.818   3.800   4.522 -0.4184 -0.1054  0.6003
 8087SOL    HW125702   3.780   3.877   4.564 -0.2309 -0.2982  1.1300
 8087SOL    HW225703   3.900   3.785   4.568 -0.5757 -0.7778  0.6812
 8088SOL     OW25704   2.721   1.299   4.900 -0.3761 -0.3995 -0.2528
 8088SOL    HW125705   2.770   1.369   4.856  1.0043 -1.6797 -0.8180
 8088SOL    HW225706   2.775   1.221   4.888 -0.6429 -1.1089  2.4670
 8089SOL     OW25707   3.299   3.220   4.200  0.0983 -0.3251 -0.0742
 8089SOL    HW125708   3.258   3.303   4.174  2.6993  1.4493  1.0441
 8089SOL    HW225709   3.392   3.233   4.184  0.5591 -3.2962 -0.3789
 8090SOL     OW25710   3.245   3.495   4.818  0.2478  0.1940  0.0263
 8090SOL    HW125711   3.178   3.440   4.858  0.8320 -0.2324  0.4295
 8090SOL    HW225712   3.208   3.584   4.822 -0.4783 -0.0928 -0.1715
 8091SOL     OW25713   3.982   0.170   7.359 -0.3786  0.8174 -0.5083
 8091SOL    HW125714   3.893   0.171   7.394 -0.4802  1.4890 -0.7680
 8091SOL    HW225715   4.006   0.077   7.358 -0.6712  0.7191  0.5651
 8092SOL     OW25716   3.599   3.495   4.128 -0.0995  0.6087  0.1937
 8092SOL    HW125717   3.603   3.399   4.130 -0.4140  0.5748 -0.6106
 8092SOL    HW225718   3.653   3.522   4.202  0.2548 -0.1829  0.2381
 8093SOL     OW25719   0.851   5.186   6.766  0.2553  0.6888  0.0868
 8093SOL    HW125720   0.842   5.146   6.852 -0.8787  1.2405  0.2387
 8093SOL    HW225721   0.945   5.189   6.751  0.4321 -0.2506  0.9019
 8094SOL     OW25722   0.946   2.025   4.498 -0.2298  0.0317  0.4203
 8094SOL    HW125723   0.949   1.978   4.415 -3.2487 -1.7243  1.1638
 8094SOL    HW225724   0.872   2.085   4.489  0.5842  1.1944  1.2134
 8095SOL     OW25725   3.607   2.390   3.259  0.7791 -0.0641  0.1576
 8095SOL    HW125726   3.599   2.325   3.189  1.8282 -0.1219  0.0768
 8095SOL    HW225727   3.517   2.414   3.280  0.4553  0.1322 -1.3776
 8096SOL     OW25728   3.708   1.099   4.157 -0.1265  0.0822 -0.6410
 8096SOL    HW125729   3.635   1.155   4.183  0.4913  0.8155 -0.4395
 8096SOL    HW225730   3.756   1.150   4.092  1.5857  0.6667  0.9875
 8097SOL     OW25731   2.337   2.903   5.544 -0.6456  0.1853  0.0939
 8097SOL    HW125732   2.253   2.919   5.501 -0.3819 -0.4346 -0.6728
 8097SOL    HW225733   2.402   2.939   5.485 -0.4384  2.2189  1.4792
 8098SOL     OW25734   1.858   4.536   3.663  0.6643 -0.2383  0.3296
 8098SOL    HW125735   1.859   4.493   3.578 -1.1514 -0.4822  0.3877
 8098SOL    HW225736   1.850   4.465   3.726 -0.5938  0.0410  0.5237
 8099SOL     OW25737   1.648   3.287   6.998  0.1755  0.8339 -0.0122
 8099SOL    HW125738   1.709   3.218   7.024 -1.3326 -0.7858 -0.4910
 8099SOL    HW225739   1.665   3.300   6.904 -0.2404  0.2921 -0.1749
 8100SOL     OW25740   2.959   2.782   6.052  0.2572  0.5312  0.3271
 8100SOL    HW125741   2.873   2.821   6.035 -0.5477  0.0401  2.8120
 8100SOL    HW225742   3.004   2.846   6.107  2.0483  1.3218 -1.8827
 8101SOL     OW25743   2.349   4.486   5.251 -0.1073  0.2214 -0.1539
 8101SOL    HW125744   2.294   4.409   5.237 -0.5686  0.5376 -0.0823
 8101SOL    HW225745   2.349   4.531   5.166  0.8211 -0.2756 -0.4351
 8102SOL     OW25746   2.663   1.951   5.074 -0.4258 -1.3876  0.1645
 8102SOL    HW125747   2.730   2.014   5.101 -2.0726  0.1892  0.8435
 8102SOL    HW225748   2.614   1.996   5.005 -1.5727 -1.9531  0.5809
 8103SOL     OW25749   2.901   1.448   6.609  0.6492  0.0294 -0.5543
 8103SOL    HW125750   2.829   1.509   6.591  0.2533  0.3306  1.7459
 8103SOL    HW225751   2.980   1.501   6.605  0.2382  0.9659  2.2528
 8104SOL     OW25752   2.021   2.532   5.616  0.2222 -0.3597  0.2108
 8104SOL    HW125753   2.061   2.508   5.532 -1.9716  3.1975 -2.1237
 8104SOL    HW225754   1.976   2.615   5.598 -3.0163 -0.9696  4.1322
 8105SOL     OW25755   1.457   2.589   3.596  0.1830 -0.3545  0.4578
 8105SOL    HW125756   1.375   2.621   3.636  1.0543  1.9856  0.5434
 8105SOL    HW225757   1.436   2.581   3.503 -0.3540 -0.5554  0.5877
 8106SOL     OW25758   2.186   3.500   6.235  0.2637  0.3300 -0.2275
 8106SOL    HW125759   2.165   3.436   6.167 -2.9776  0.6716  0.3162
 8106SOL    HW225760   2.274   3.476   6.264 -0.4070 -3.2882 -0.7108
 8107SOL     OW25761   1.356   1.866   5.689 -0.0458  0.0528  0.1980
 8107SOL    HW125762   1.449   1.881   5.705 -0.3947  0.4984  2.0640
 8107SOL    HW225763   1.336   1.785   5.735 -0.2357 -1.0402 -1.7130
 8108SOL     OW25764   1.290   2.705   6.895 -0.6718  0.0003 -0.0159
 8108SOL    HW125765   1.372   2.655   6.893 -0.1411  0.8721 -1.4042
 8108SOL    HW225766   1.223   2.642   6.867 -0.1900 -0.2507 -0.6197
 8109SOL     OW25767   2.765   2.900   6.348 -0.0082 -0.3399  0.3674
 8109SOL    HW125768   2.849   2.930   6.313  0.9710 -1.6421  1.4852
 8109SOL    HW225769   2.701   2.919   6.279  0.9755  1.7972 -0.0214
 8110SOL     OW25770   2.261   2.607   8.166  0.4295 -0.4932 -0.2806
 8110SOL    HW125771   2.325   2.579   8.100  0.8879  1.1882 -0.5789
 8110SOL    HW225772   2.196   2.537   8.167  1.1217 -1.1881 -1.5428
 8111SOL     OW25773   3.054   7.979   4.705  0.2366  0.0066  0.0263
 8111SOL    HW125774   2.967   7.956   4.738  0.5261  0.2484  0.9890
 8111SOL    HW225775   3.038   8.015   4.618 -0.6412  0.1649  0.2474
 8112SOL     OW25776   1.550   3.569   4.110  0.2160 -0.0848  0.7326
 8112SOL    HW125777   1.500   3.565   4.191  0.3151 -0.5982  0.7731
 8112SOL    HW225778   1.614   3.640   4.124  1.5030 -1.3974  1.8507
 8113SOL     OW25779   1.637   3.829   6.682  0.5312 -0.3248  0.5516
 8113SOL    HW125780   1.731   3.843   6.670  0.4897 -0.4686  0.0149
 8113SOL    HW225781   1.607   3.793   6.598 -0.0150 -0.2232  0.6964
 8114SOL     OW25782   2.306   2.735   7.008 -0.5864  0.3459  0.1485
 8114SOL    HW125783   2.248   2.770   7.076 -0.1523  0.4366  0.4793
 8114SOL    HW225784   2.394   2.761   7.036 -0.5005  1.6005 -1.1771
 8115SOL     OW25785   1.743   2.138   5.855  0.0996  0.4322 -0.4405
 8115SOL    HW125786   1.764   2.220   5.809  0.0569  0.4766 -0.3822
 8115SOL    HW225787   1.697   2.085   5.790 -1.5128  1.1828  0.0471
 8116SOL     OW25788   2.968   3.161   5.904 -0.3592 -0.1490 -0.0381
 8116SOL    HW125789   2.986   3.236   5.848 -1.2975  0.9678  1.1044
 8116SOL    HW225790   3.046   3.153   5.959 -1.0163  1.3021  1.2057
 8117SOL     OW25791   2.603   3.864   5.170 -0.4319 -0.3716 -0.4027
 8117SOL    HW125792   2.640   3.777   5.153 -1.4926 -0.7984 -0.5878
 8117SOL    HW225793   2.514   3.846   5.200  0.0631  0.5501  1.7387
 8118SOL     OW25794   3.426   1.917   8.692  0.0591  0.2347  0.6344
 8118SOL    HW125795   3.477   1.838   8.711  0.0147  0.0605  0.0652
 8118SOL    HW225796   3.395   1.903   8.602 -0.6947  0.4986  0.8513
 8119SOL     OW25797   0.416   0.700   5.715 -0.9539 -0.3631 -0.8143
 8119SOL    HW125798   0.512   0.696   5.710 -0.7305  1.8479  0.5698
 8119SOL    HW225799   0.390   0.609   5.730  1.2810 -0.6002  3.0321
 8120SOL     OW25800   2.537   2.632   5.343 -0.8482  0.3375 -0.2589
 8120SOL    HW125801   2.548   2.586   5.260 -0.6933  1.0937 -0.6686
 8120SOL    HW225802   2.556   2.566   5.409 -0.5966 -0.1781 -0.8277
 8121SOL     OW25803   3.125   3.140   6.141  0.7157  0.4303 -0.3370
 8121SOL    HW125804   3.164   3.053   6.152 -0.7967 -0.2309  0.0772
 8121SOL    HW225805   3.055   3.143   6.206 -0.6814  1.0949 -1.7849
 8122SOL     OW25806   2.368   4.010   5.959  0.4511  0.1750  0.2360
 8122SOL    HW125807   2.421   3.955   6.017 -1.9907 -2.0529  0.5203
 8122SOL    HW225808   2.278   3.990   5.983 -0.5994  1.5632 -2.2246
 8123SOL     OW25809   3.071   0.698   8.055 -0.5075  0.7945  0.0885
 8123SOL    HW125810   3.063   0.702   7.959  1.1463  1.2412 -0.0586
 8123SOL    HW225811   3.163   0.677   8.070 -0.9846 -0.3062  1.5849
 8124SOL     OW25812   2.255   2.728   4.699 -0.1715  0.9349 -0.1050
 8124SOL    HW125813   2.348   2.720   4.718 -0.2479 -1.7767 -0.5141
 8124SOL    HW225814   2.218   2.774   4.774  1.0878 -0.3808  1.3675
 8125SOL     OW25815   4.335   3.749   8.074 -0.5570  0.2095  0.1165
 8125SOL    HW125816   4.390   3.769   8.150  0.5571 -1.1409 -0.2750
 8125SOL    HW225817   4.381   3.788   8.000 -0.8001  0.1657 -0.0596
 8126SOL     OW25818   2.874   2.341   6.173  0.2932 -0.6497  0.3228
 8126SOL    HW125819   2.932   2.268   6.154  0.1651 -1.0728  1.4643
 8126SOL    HW225820   2.789   2.300   6.192 -0.0882 -0.1227 -0.1927
 8127SOL     OW25821   1.490   2.796   6.440 -0.4441 -0.2294 -0.0164
 8127SOL    HW125822   1.496   2.879   6.487  0.6017 -0.4649  0.3067
 8127SOL    HW225823   1.425   2.745   6.488 -1.8953  0.7690 -0.8426
 8128SOL     OW25824   1.972   3.584   5.474  0.7376  0.3975 -0.1395
 8128SOL    HW125825   1.969   3.628   5.389  1.6819  0.8838  0.0753
 8128SOL    HW225826   2.022   3.642   5.530 -1.3954  0.9846  1.3026
 8129SOL     OW25827   3.480   3.276   7.124  0.4286  0.1215 -0.4122
 8129SOL    HW125828   3.570   3.245   7.131  0.9491  1.2225 -1.8311
 8129SOL    HW225829   3.480   3.334   7.048 -1.4842  0.1400 -0.4492
 8130SOL     OW25830   2.622   3.078   7.447 -0.3596 -0.3444 -0.5518
 8130SOL    HW125831   2.709   3.038   7.441  0.0774  0.6364 -0.9344
 8130SOL    HW225832   2.562   3.009   7.420  0.1536 -1.5287  1.1488
 8131SOL     OW25833   2.827   2.222   5.848  1.0831 -0.6457 -0.6327
 8131SOL    HW125834   2.740   2.235   5.884  1.4625 -0.6715  0.3193
 8131SOL    HW225835   2.850   2.132   5.873  1.4426 -0.5837 -0.7295
 8132SOL     OW25836   2.659   2.205   6.283  0.9327  0.4833  0.0310
 8132SOL    HW125837   2.674   2.133   6.345  0.2548 -0.8082 -1.2568
 8132SOL    HW225838   2.608   2.268   6.333  0.7152 -0.3603  0.9145
 8133SOL     OW25839   2.877   4.003   8.438  0.2099 -0.4068  0.8559
 8133SOL    HW125840   2.794   4.002   8.485 -0.2032 -2.3733  0.2042
 8133SOL    HW225841   2.860   4.055   8.359 -0.1702 -0.1452  1.1087
 8134SOL     OW25842   1.882   3.984   6.634 -0.1935  0.0777  0.2210
 8134SOL    HW125843   1.934   4.005   6.712 -0.9253 -0.1016  0.7718
 8134SOL    HW225844   1.946   3.975   6.564  0.3219  2.4269  0.3105
 8135SOL     OW25845   3.193   3.120   6.496  0.0713 -0.1383 -0.1731
 8135SOL    HW125846   3.238   3.195   6.533 -0.2001  0.2389 -0.6023
 8135SOL    HW225847   3.263   3.060   6.470  0.2868 -0.0474  0.1914
 8136SOL     OW25848   2.596   1.503   6.491 -0.5327 -0.3445 -0.1976
 8136SOL    HW125849   2.549   1.524   6.410 -1.3181  0.4236  0.4520
 8136SOL    HW225850   2.558   1.560   6.557  1.0651  0.0339  0.4319
 8137SOL     OW25851   3.771   2.754   6.219 -0.3154 -0.1406 -0.3356
 8137SOL    HW125852   3.856   2.792   6.197  0.8319 -2.1728  0.3746
 8137SOL    HW225853   3.713   2.830   6.228  1.7432  1.4323  0.5871
 8138SOL     OW25854   0.454   3.851   7.044 -0.6725 -0.1499 -0.0877
 8138SOL    HW125855   0.362   3.875   7.051 -0.3362  1.0938  0.2223
 8138SOL    HW225856   0.475   3.859   6.951 -1.0083 -0.9681 -0.2402
 8139SOL     OW25857   2.226   1.768   6.286 -0.4834 -0.5746 -0.4403
 8139SOL    HW125858   2.251   1.823   6.360  0.2590 -1.1808 -0.2283
 8139SOL    HW225859   2.215   1.830   6.213 -1.0558  0.0064  0.1223
 8140SOL     OW25860   3.758   3.466   7.435 -0.0362  0.0423  0.7454
 8140SOL    HW125861   3.830   3.427   7.386 -0.1747  0.3364  0.2954
 8140SOL    HW225862   3.699   3.500   7.367  0.5616  1.9224  1.0918
 8141SOL     OW25863   2.263   2.267   5.561 -0.2136  0.0021 -0.0927
 8141SOL    HW125864   2.333   2.293   5.621 -0.1451 -0.5589  0.0706
 8141SOL    HW225865   2.287   2.308   5.477 -0.4802  1.0624  0.3243
 8142SOL     OW25866   0.803   3.351   7.485  0.8577  0.0290 -0.0429
 8142SOL    HW125867   0.860   3.419   7.520  0.8997 -0.1884  0.3150
 8142SOL    HW225868   0.862   3.284   7.451  0.8183 -0.0601  0.0616
 8143SOL     OW25869   3.043   4.066   5.770 -0.4798 -0.3460  0.6910
 8143SOL    HW125870   3.116   4.127   5.764  0.3096 -1.3783 -0.9958
 8143SOL    HW225871   2.988   4.088   5.694 -0.4497 -1.3656  0.3582
 8144SOL     OW25872   2.848   5.185   6.072  0.1232  1.0069 -0.0447
 8144SOL    HW125873   2.892   5.194   6.157  1.4715 -1.8726 -0.3073
 8144SOL    HW225874   2.809   5.097   6.075 -3.8801  2.5547 -0.7037
 8145SOL     OW25875   3.257   3.346   5.977  0.3325  0.4990  0.5974
 8145SOL    HW125876   3.345   3.312   5.963 -0.7125 -1.7819 -0.9073
 8145SOL    HW225877   3.224   3.298   6.052 -0.6168 -0.8444 -0.6251
 8146SOL     OW25878   1.398   3.084   6.619 -0.3829 -1.0824 -0.3983
 8146SOL    HW125879   1.352   3.006   6.650 -0.5905 -0.4268  1.0077
 8146SOL    HW225880   1.470   3.095   6.681 -1.5197  0.9679  0.6615
 8147SOL     OW25881   0.205   3.171   5.097 -0.2051 -0.3805  0.2846
 8147SOL    HW125882   0.251   3.254   5.079 -1.1641  0.4671  1.5877
 8147SOL    HW225883   0.275   3.106   5.106  0.6323  0.5220  0.4542
 8148SOL     OW25884   3.878   2.014   4.413 -0.4845 -0.8027  0.0211
 8148SOL    HW125885   3.846   2.084   4.469  0.3801 -0.4529  0.0878
 8148SOL    HW225886   3.862   2.045   4.324 -1.3058 -1.1003  0.0531
 8149SOL     OW25887   2.396   2.339   7.876  0.7757 -0.2882  0.1583
 8149SOL    HW125888   2.317   2.299   7.913  1.4401 -0.6572  1.2654
 8149SOL    HW225889   2.463   2.322   7.943  1.5315  0.9766 -0.2607
 8150SOL     OW25890   2.580   3.953   5.468 -0.2192 -0.2639 -0.4901
 8150SOL    HW125891   2.544   3.887   5.409 -1.9182  1.5705 -1.6359
 8150SOL    HW225892   2.514   3.962   5.537 -0.1855  0.4439 -0.5379
 8151SOL     OW25893   1.626   3.172   7.653 -0.1175  0.6600  0.1157
 8151SOL    HW125894   1.537   3.158   7.682  0.3067 -0.3568  0.9845
 8151SOL    HW225895   1.643   3.099   7.592  0.6811 -0.1884  1.3162
 8152SOL     OW25896   2.368   3.744   5.289 -0.0885 -0.3133  0.1494
 8152SOL    HW125897   2.411   3.672   5.243  0.4570 -0.4184  0.7982
 8152SOL    HW225898   2.365   3.716   5.381 -0.7734  0.0658  0.2487
 8153SOL     OW25899   2.051   3.581   6.456  0.0674 -0.7534  0.0739
 8153SOL    HW125900   1.986   3.630   6.405 -0.5187 -1.8392 -0.2427
 8153SOL    HW225901   2.101   3.532   6.391 -0.1964 -1.5687  0.4709
 8154SOL     OW25902   3.143   1.705   8.622  0.1767 -0.4258  0.0811
 8154SOL    HW125903   3.189   1.786   8.643  2.0589 -1.1455 -0.9768
 8154SOL    HW225904   3.105   1.721   8.535  0.8894 -0.7841 -0.3065
 8155SOL     OW25905   2.313   3.837   8.115 -0.0326  0.3308  0.4206
 8155SOL    HW125906   2.360   3.880   8.043 -2.5268 -0.1472 -1.6644
 8155SOL    HW225907   2.244   3.787   8.071 -1.8032  0.1428  3.2019
 8156SOL     OW25908   2.012   1.665   8.305  0.0427 -0.5161 -0.2466
 8156SOL    HW125909   2.005   1.755   8.336 -0.9387 -0.5858 -0.2349
 8156SOL    HW225910   2.063   1.671   8.224  0.4816 -0.0266  0.0619
 8157SOL     OW25911   3.593   2.356   7.335 -0.3775  0.1635  0.1208
 8157SOL    HW125912   3.604   2.451   7.347 -1.2984  0.3366 -0.3363
 8157SOL    HW225913   3.620   2.318   7.419  1.2792  0.7180 -0.1226
 8158SOL     OW25914   3.060   2.698   5.177 -0.0123 -0.4057  0.1251
 8158SOL    HW125915   3.088   2.770   5.121  0.6145 -0.4444  0.3741
 8158SOL    HW225916   3.091   2.722   5.264 -0.9398 -0.3616  0.4566
 8159SOL     OW25917   3.424   1.597   8.387 -0.3904  0.2359  0.7650
 8159SOL    HW125918   3.431   1.634   8.475  3.3768  2.6080 -0.2934
 8159SOL    HW225919   3.354   1.647   8.345 -0.0820  1.3038  1.4941
 8160SOL     OW25920   1.343   2.982   7.490 -0.4615  0.5131 -0.1167
 8160SOL    HW125921   1.356   3.037   7.567 -1.7757  1.5526 -0.5901
 8160SOL    HW225922   1.371   3.037   7.417  0.6455 -0.4149 -0.4276
 8161SOL     OW25923   3.199   2.993   6.877 -0.2385  0.1645 -0.2702
 8161SOL    HW125924   3.284   2.954   6.900 -0.8739 -1.4312 -0.5437
 8161SOL    HW225925   3.214   3.088   6.883  1.1701 -0.1094  1.0894
 8162SOL     OW25926   2.556   1.548   4.562 -0.0343 -0.0053  0.3160
 8162SOL    HW125927   2.597   1.466   4.535  0.3156  0.2297  0.1238
 8162SOL    HW225928   2.629   1.610   4.570 -0.3850  0.5293 -0.4570
 8163SOL     OW25929   3.606   2.245   7.589 -0.0091 -0.2036 -0.2318
 8163SOL    HW125930   3.590   2.330   7.629  0.6647 -0.1247 -0.1149
 8163SOL    HW225931   3.576   2.181   7.654 -0.8994 -0.0568 -0.4900
 8164SOL     OW25932   3.160   3.573   5.875  0.0716  0.1031 -0.0784
 8164SOL    HW125933   3.218   3.631   5.825 -0.3996 -0.1301 -0.9125
 8164SOL    HW225934   3.219   3.514   5.922  0.5604  1.2372  0.7758
 8165SOL     OW25935   1.897   3.078   5.361  0.6549  0.3383  0.2621
 8165SOL    HW125936   1.927   3.155   5.409  0.4454  0.3387  0.3921
 8165SOL    HW225937   1.810   3.101   5.330  0.2094 -0.1937  1.1007
 8166SOL     OW25938   2.740   2.884   5.845 -0.3450 -0.2515  0.2048
 8166SOL    HW125939   2.724   2.962   5.896  0.0716  0.2316 -0.3861
 8166SOL    HW225940   2.754   2.916   5.756  2.4708 -0.7029  0.3742
 8167SOL     OW25941   0.202   3.482   5.410 -0.2755 -0.2640 -0.3417
 8167SOL    HW125942   0.246   3.399   5.429  0.6085  0.4300  0.7325
 8167SOL    HW225943   0.131   3.487   5.475  0.8070  0.6506  0.8074
 8168SOL     OW25944   3.297   2.857   6.547  0.5499 -0.2323  0.1756
 8168SOL    HW125945   3.299   2.912   6.625 -0.1012  1.5999 -1.0459
 8168SOL    HW225946   3.382   2.869   6.506  0.5831 -0.5278  0.1511
 8169SOL     OW25947   2.157   3.322   6.023 -0.1136 -0.5467  0.0515
 8169SOL    HW125948   2.062   3.325   6.010 -0.4367 -0.2540  2.1533
 8169SOL    HW225949   2.183   3.237   5.988 -0.7463  0.3017 -2.6685
 8170SOL     OW25950   3.257   0.819   5.074  0.9026 -0.4393  0.6221
 8170SOL    HW125951   3.337   0.837   5.124  0.9033  0.3121  0.3754
 8170SOL    HW225952   3.272   0.733   5.035  2.2794  0.3410 -0.6937
 8171SOL     OW25953   1.630   2.773   6.801 -0.6191  0.2519 -0.1764
 8171SOL    HW125954   1.575   2.698   6.777  0.7690 -0.5544 -0.9464
 8171SOL    HW225955   1.638   2.766   6.897 -2.9167  1.1735  0.1370
 8172SOL     OW25956   3.954   0.791   7.137  0.3175  0.0619 -0.2497
 8172SOL    HW125957   3.904   0.873   7.138 -0.4177 -0.3857 -0.2797
 8172SOL    HW225958   3.995   0.788   7.224 -0.8084 -0.2356  0.2917
 8173SOL     OW25959   0.176   3.470   5.876  0.1725 -0.0102 -0.0880
 8173SOL    HW125960   0.258   3.468   5.828  0.0540  1.0541 -0.3686
 8173SOL    HW225961   0.177   3.555   5.921 -1.1097  0.3649 -0.7159
 8174SOL     OW25962   2.503   0.631   6.481 -0.1855 -0.7718  0.1002
 8174SOL    HW125963   2.582   0.638   6.534 -0.0450 -0.8454 -0.0978
 8174SOL    HW225964   2.530   0.658   6.393 -0.5178 -0.2427  0.1596
 8175SOL     OW25965   2.586   3.270   7.148 -0.0949 -0.7281 -0.3507
 8175SOL    HW125966   2.557   3.178   7.147 -0.3568 -0.6397 -1.8252
 8175SOL    HW225967   2.520   3.317   7.098  0.7563  0.0419 -0.7771
 8176SOL     OW25968   3.944   2.313   7.860  0.0347  0.2617 -0.7400
 8176SOL    HW125969   3.917   2.402   7.838  0.0548  1.3266  3.0113
 8176SOL    HW225970   4.027   2.302   7.813 -0.0756  2.0944 -1.4700
 8177SOL     OW25971   3.263   2.684   5.357  0.0181 -0.3850 -0.5265
 8177SOL    HW125972   3.343   2.684   5.410  0.1179  1.2885 -0.6133
 8177SOL    HW225973   3.285   2.738   5.281 -1.3431  0.5380 -0.2944
 8178SOL     OW25974   1.017   1.472   6.253 -0.2077  0.2820 -1.1774
 8178SOL    HW125975   1.007   1.386   6.294  0.4168  0.4744 -0.5932
 8178SOL    HW225976   0.928   1.502   6.237 -0.4426 -0.1922 -0.7636
 8179SOL     OW25977   3.074   2.822   5.798  0.1192 -0.2328 -0.1897
 8179SOL    HW125978   3.037   2.805   5.885  2.0640 -0.9014  0.5523
 8179SOL    HW225979   3.004   2.867   5.751 -0.0341  2.9868  2.7140
 8180SOL     OW25980   4.427   1.071   6.001 -0.1918  0.7650  0.0442
 8180SOL    HW125981   4.432   1.054   6.095 -1.1136  0.1322 -0.0086
 8180SOL    HW225982   4.334   1.090   5.985 -0.1447  0.3277 -0.8219
 8181SOL     OW25983   1.411   2.879   5.433  0.0365 -0.0456  0.5237
 8181SOL    HW125984   1.449   2.823   5.365  1.6081  2.0435 -0.4364
 8181SOL    HW225985   1.327   2.907   5.397  0.1383 -0.2043  0.1609
 8182SOL     OW25986   1.444   3.125   7.277  0.3467  0.2631 -0.1317
 8182SOL    HW125987   1.467   3.202   7.224 -0.2692 -1.0250 -2.4233
 8182SOL    HW225988   1.505   3.057   7.249 -1.1190 -0.9534 -0.5386
 8183SOL     OW25989   4.039   3.785   7.083  0.3312 -0.4313 -0.0605
 8183SOL    HW125990   4.035   3.693   7.057  2.5533 -0.1368 -1.7319
 8183SOL    HW225991   4.106   3.823   7.027 -1.1420  2.4477 -0.0474
 8184SOL     OW25992   1.711   3.088   6.403  0.1529  0.2507  0.4212
 8184SOL    HW125993   1.685   3.038   6.480 -2.0396 -0.1562 -0.4993
 8184SOL    HW225994   1.711   3.179   6.431 -0.9198  0.1300  0.8715
 8185SOL     OW25995   1.654   1.999   5.318 -0.0754  0.0738 -0.1302
 8185SOL    HW125996   1.716   2.010   5.246 -0.1833  0.1464 -0.2141
 8185SOL    HW225997   1.637   1.905   5.320 -0.6031  0.1477 -0.6577
 8186SOL     OW25998   2.299   2.865   6.764  0.2664 -0.8591  0.3960
 8186SOL    HW125999   2.343   2.825   6.839  0.6957 -0.1927  0.5130
 8186SOL    HW226000   2.331   2.956   6.764  0.3147 -0.8689 -0.6324
 8187SOL     OW26001   2.547   4.977   3.719  0.3710 -0.0030  0.2587
 8187SOL    HW126002   2.502   5.044   3.771 -0.9121 -0.0369 -0.7456
 8187SOL    HW226003   2.501   4.895   3.740  2.7652 -0.8879  2.4861
 8188SOL     OW26004   1.124   3.098   6.038  0.4517  0.2148 -0.1810
 8188SOL    HW126005   1.105   3.189   6.014  0.8192  0.3389  0.0098
 8188SOL    HW226006   1.108   3.049   5.957 -0.6287  0.3212 -0.0579
 8189SOL     OW26007   4.318   1.706   7.586  0.3208  0.0846 -0.5595
 8189SOL    HW126008   4.242   1.765   7.582  0.5694  0.4027 -0.6185
 8189SOL    HW226009   4.320   1.676   7.677 -0.3350 -0.5377 -0.7387
 8190SOL     OW26010   1.539   3.751   6.241 -0.0884 -0.2893  0.3571
 8190SOL    HW126011   1.565   3.842   6.227 -1.2301 -0.2432 -1.8005
 8190SOL    HW226012   1.519   3.717   6.154  2.2556 -3.2803  0.7663
 8191SOL     OW26013   2.718   3.209   5.997  0.3508 -0.3641 -0.1766
 8191SOL    HW126014   2.720   3.285   6.055 -0.2456 -0.5524  0.0961
 8191SOL    HW226015   2.810   3.191   5.978  0.5073  0.2816 -0.0582
 8192SOL     OW26016   2.266   3.398   6.611 -0.1526 -0.3498  0.1927
 8192SOL    HW126017   2.361   3.408   6.599 -0.2899  2.2638  0.6410
 8192SOL    HW226018   2.228   3.469   6.560 -1.8290 -0.7832  0.7818
 8193SOL     OW26019   3.302   3.311   7.400 -0.4093 -0.3865 -0.0930
 8193SOL    HW126020   3.358   3.269   7.335 -0.8479 -1.4456  0.1920
 8193SOL    HW226021   3.352   3.387   7.430  0.2641 -0.5167 -0.8558
 8194SOL     OW26022   2.582   3.519   6.955 -0.5337  0.2000 -0.3490
 8194SOL    HW126023   2.576   3.450   6.888 -2.1242 -0.7742  0.7256
 8194SOL    HW226024   2.662   3.499   7.002 -0.2870 -0.1158 -0.8888
 8195SOL     OW26025   0.417   2.838   5.831  0.2099 -0.6390  0.4277
 8195SOL    HW126026   0.364   2.918   5.833  0.2207 -0.4959 -1.8168
 8195SOL    HW226027   0.502   2.865   5.866 -0.0888  0.0913  0.6039
 8196SOL     OW26028   2.914   2.906   5.616 -0.3624 -0.4746  0.3150
 8196SOL    HW126029   2.924   2.990   5.570 -0.0274 -0.5826  0.1938
 8196SOL    HW226030   2.892   2.844   5.547  0.3881 -0.6869  0.2688
 8197SOL     OW26031   3.222   3.170   7.122 -0.6879  0.8641  0.2744
 8197SOL    HW126032   3.210   3.223   7.043 -0.8111  0.0368 -0.2833
 8197SOL    HW226033   3.308   3.195   7.155 -0.1374  0.4367 -0.7659
 8198SOL     OW26034   2.696   3.068   6.652  0.1909  0.4388  0.6832
 8198SOL    HW126035   2.661   3.017   6.725 -0.0940 -1.4344 -0.6813
 8198SOL    HW226036   2.789   3.046   6.650 -0.2453 -1.5951 -1.0034
 8199SOL     OW26037   1.662   1.705   7.510  0.5268 -0.3854  0.3326
 8199SOL    HW126038   1.674   1.648   7.434 -0.7767 -0.9281  0.4952
 8199SOL    HW226039   1.599   1.658   7.565  0.1548  0.7705  0.9328
 8200SOL     OW26040   2.640   3.566   5.426 -0.3402 -0.4839 -0.1501
 8200SOL    HW126041   2.685   3.554   5.509  2.9328 -0.3234 -1.7535
 8200SOL    HW226042   2.670   3.494   5.371 -2.3438 -0.5341 -1.2942
 8201SOL     OW26043   2.610   2.919   6.887  0.0400 -0.5109  0.0313
 8201SOL    HW126044   2.564   2.976   6.950  0.7212  0.3839 -0.2625
 8201SOL    HW226045   2.685   2.885   6.936  0.3026 -0.1930 -0.1431
 8202SOL     OW26046   2.788   1.066   6.165  0.2462  0.3502 -0.2942
 8202SOL    HW126047   2.732   1.140   6.141 -0.2008 -0.3649 -1.5414
 8202SOL    HW226048   2.727   1.001   6.200  0.5961  0.4436  0.4910
 8203SOL     OW26049   3.562   1.965   6.214  0.4812 -0.0031  0.0786
 8203SOL    HW126050   3.640   1.947   6.162  0.4701 -1.1210  0.4206
 8203SOL    HW226051   3.533   1.879   6.245 -1.3904  0.2746 -0.7622
 8204SOL     OW26052   0.792   3.320   5.217  0.6596 -0.3030 -0.3715
 8204SOL    HW126053   0.757   3.338   5.130  1.1860 -0.0940 -0.5383
 8204SOL    HW226054   0.885   3.339   5.211  0.2324  2.9974  1.0932
 8205SOL     OW26055   4.355   2.301   8.359 -0.6222  0.3590  0.2620
 8205SOL    HW126056   4.320   2.217   8.331 -0.4969 -0.1057  1.4652
 8205SOL    HW226057   4.280   2.361   8.353 -1.1722 -0.2243  1.0671
 8206SOL     OW26058   3.038   2.298   8.343  0.1849 -0.5216  0.0826
 8206SOL    HW126059   3.123   2.265   8.312  2.2265  2.9317  1.4583
 8206SOL    HW226060   3.002   2.344   8.267  0.1577 -0.9007 -0.1377
 8207SOL     OW26061   1.759   2.819   5.756  0.0443  0.0099  0.2516
 8207SOL    HW126062   1.743   2.728   5.780 -1.2859  0.7952  2.7594
 8207SOL    HW226063   1.673   2.851   5.727  0.7192  0.2547 -1.6199
 8208SOL     OW26064   3.846   2.107   5.856  0.1817  0.2430 -0.1848
 8208SOL    HW126065   3.923   2.153   5.822  0.1747  0.3734 -0.0253
 8208SOL    HW226066   3.822   2.045   5.786  0.8034 -0.2358  0.0115
 8209SOL     OW26067   3.149   3.815   7.123 -0.7514 -0.4243  0.0189
 8209SOL    HW126068   3.166   3.724   7.099  0.1885 -0.3673  0.4262
 8209SOL    HW226069   3.211   3.865   7.069 -0.4688 -0.1136  0.6282
 8210SOL     OW26070   1.694   2.405   5.116  0.0582 -0.2708 -0.1726
 8210SOL    HW126071   1.626   2.347   5.149 -2.6710  2.5767 -0.4072
 8210SOL    HW226072   1.710   2.466   5.188 -0.3362  1.2974 -1.3760
 8211SOL     OW26073   1.511   3.396   5.633 -0.7483  0.5700  0.3944
 8211SOL    HW126074   1.577   3.465   5.639  0.4170 -0.2550 -1.6947
 8211SOL    HW226075   1.427   3.441   5.640 -0.0242  2.2450 -1.0750
 8212SOL     OW26076   2.649   3.192   5.623 -0.8027 -0.3790  0.4718
 8212SOL    HW126077   2.729   3.196   5.571  0.4948  0.0217  2.4013
 8212SOL    HW226078   2.640   3.280   5.660 -1.1834 -0.8710  1.6077
 8213SOL     OW26079   2.086   3.684   7.992  0.7054  0.7219 -0.2551
 8213SOL    HW126080   2.104   3.590   7.983  1.4358  0.8927 -0.5901
 8213SOL    HW226081   2.074   3.715   7.902 -0.3690  0.8017 -0.1042
 8214SOL     OW26082   3.095   2.624   7.564 -0.1132 -0.5966 -0.0032
 8214SOL    HW126083   3.116   2.709   7.526 -1.2055 -0.5544 -0.5746
 8214SOL    HW226084   3.028   2.587   7.506  0.1582 -1.7437  0.3711
 8215SOL     OW26085   2.286   2.224   6.532 -0.0760  0.8623  0.5545
 8215SOL    HW126086   2.286   2.279   6.454 -0.4978  0.0572 -0.0315
 8215SOL    HW226087   2.198   2.236   6.570 -1.0257 -1.0722 -0.8288
 8216SOL     OW26088   4.244   1.584   6.361  0.3667 -0.2581  0.6825
 8216SOL    HW126089   4.234   1.663   6.308  1.2421  0.4569  1.5312
 8216SOL    HW226090   4.232   1.512   6.300 -2.4138  0.4789  0.2494
 8217SOL     OW26091   3.907   1.718   7.441 -0.4195  0.2209 -0.3393
 8217SOL    HW126092   3.926   1.807   7.469  1.4590 -0.4424  0.6907
 8217SOL    HW226093   3.852   1.728   7.364 -1.2052  2.2301  0.4233
 8218SOL     OW26094   2.270   3.110   5.246 -0.1411  0.3029 -0.2436
 8218SOL    HW126095   2.333   3.169   5.287 -0.4007  2.0405 -2.1738
 8218SOL    HW226096   2.320   3.064   5.179 -0.0786 -1.3524  0.8575
 8219SOL     OW26097   0.565   2.931   6.769  0.7735 -0.6777  0.0135
 8219SOL    HW126098   0.481   2.926   6.722 -1.2258  3.7444  2.4523
 8219SOL    HW226099   0.555   2.869   6.841  0.7160 -1.9700 -1.0584
 8220SOL     OW26100   3.357   2.631   6.981 -0.0674  0.0721  0.6647
 8220SOL    HW126101   3.279   2.655   6.931  0.4210  0.6587  0.1708
 8220SOL    HW226102   3.350   2.680   7.062  1.1263  2.3069 -0.4959
 8221SOL     OW26103   3.164   2.138   7.074  0.0840 -0.1072  0.9823
 8221SOL    HW126104   3.249   2.112   7.109 -0.1661 -0.3221  1.4406
 8221SOL    HW226105   3.124   2.189   7.144 -1.7596 -3.1913  2.4019
 8222SOL     OW26106   2.751   1.896   5.745 -0.2092 -0.1247  0.0129
 8222SOL    HW126107   2.659   1.872   5.743  0.5928 -4.0253 -2.6184
 8222SOL    HW226108   2.777   1.887   5.837 -1.5900 -3.5362  0.2122
 8223SOL     OW26109   1.437   1.029   5.128  0.2214 -0.1576 -0.6622
 8223SOL    HW126110   1.438   1.124   5.114 -1.1142  0.3046  1.8522
 8223SOL    HW226111   1.346   1.003   5.114  0.6511 -1.1735 -1.7374
 8224SOL     OW26112   3.476   2.901   6.955 -0.4007 -0.2385 -0.2666
 8224SOL    HW126113   3.554   2.956   6.964 -2.6464  3.1707 -0.0662
 8224SOL    HW226114   3.459   2.870   7.044 -0.5347  0.9474  0.1411
 8225SOL     OW26115   3.601   3.228   7.396 -0.8680 -0.3564 -0.8090
 8225SOL    HW126116   3.651   3.220   7.315 -0.5302 -0.8061 -0.5615
 8225SOL    HW226117   3.610   3.320   7.421 -0.8743 -0.2442 -1.2169
 8226SOL     OW26118   1.029   2.641   6.776 -0.0762 -0.1233  0.0284
 8226SOL    HW126119   0.952   2.635   6.718 -2.0638  1.7499  2.2356
 8226SOL    HW226120   1.045   2.735   6.783 -0.7572 -0.1309  3.3824
 8227SOL     OW26121   1.786   2.503   4.853  0.0936  0.0940  0.6585
 8227SOL    HW126122   1.737   2.579   4.823  1.2038  0.6824  0.2762
 8227SOL    HW226123   1.740   2.474   4.932 -1.0215  0.4438  0.1551
 8228SOL     OW26124   3.073   3.441   7.220 -0.2562 -0.6440 -0.1414
 8228SOL    HW126125   3.116   3.359   7.242  0.3990  0.3984  3.0563
 8228SOL    HW226126   3.143   3.498   7.188 -0.1328 -0.4818  0.3941
 8229SOL     OW26127   2.725   2.541   4.597  0.2726  0.0885  0.1036
 8229SOL    HW126128   2.780   2.517   4.523  0.5178  0.2511  0.2310
 8229SOL    HW226129   2.756   2.486   4.669 -0.1888 -0.3112  0.0019
 8230SOL     OW26130   2.210   3.280   7.322 -0.1987 -0.5244  0.1049
 8230SOL    HW126131   2.294   3.306   7.361 -0.8252  1.3922  0.2938
 8230SOL    HW226132   2.173   3.217   7.383  0.6697 -0.6459  0.5139
 8231SOL     OW26133   1.939   3.676   5.976  0.2641 -0.0092 -0.3329
 8231SOL    HW126134   1.852   3.713   5.966  0.4120  0.1825 -0.9698
 8231SOL    HW226135   1.924   3.583   5.993 -0.0330 -0.3873 -2.4490
 8232SOL     OW26136   2.983   2.890   4.533 -0.0386  0.1009 -0.5329
 8232SOL    HW126137   2.975   2.939   4.451 -1.1822 -1.8657 -1.6784
 8232SOL    HW226138   2.926   2.936   4.594 -1.1086  0.2103 -1.5726
 8233SOL     OW26139   1.884   3.343   7.316  0.3175  0.5082 -0.8212
 8233SOL    HW126140   1.951   3.339   7.385 -0.3184  3.2736  0.0733
 8233SOL    HW226141   1.933   3.359   7.236  0.9740 -1.6505 -0.9340
 8234SOL     OW26142   2.925   1.269   5.838  0.5286  0.5615  0.1476
 8234SOL    HW126143   2.914   1.233   5.927 -1.1717 -0.8507 -0.5618
 8234SOL    HW226144   2.843   1.248   5.794  1.3865  1.1134 -1.8123
 8235SOL     OW26145   2.674   4.127   5.215 -0.0805 -0.2586 -0.1929
 8235SOL    HW126146   2.643   4.042   5.183  0.1404 -1.1053  1.7047
 8235SOL    HW226147   2.595   4.170   5.248  0.2544 -1.1807  1.9373
 8236SOL     OW26148   1.909   2.646   6.739 -0.2977  0.3955 -0.1531
 8236SOL    HW126149   1.940   2.613   6.823  0.1536 -0.4352 -0.6224
 8236SOL    HW226150   1.845   2.714   6.761  1.7756  2.1331  0.8444
 8237SOL     OW26151   2.456   2.780   5.934 -0.0506 -0.1107 -0.9020
 8237SOL    HW126152   2.514   2.856   5.924  2.0247 -1.4678 -0.0243
 8237SOL    HW226153   2.455   2.739   5.847 -3.2067  2.1328 -2.1043
 8238SOL     OW26154   1.585   4.762   7.914 -0.1207  0.4665 -0.3462
 8238SOL    HW126155   1.643   4.716   7.854 -0.8164 -0.8899 -0.0285
 8238SOL    HW226156   1.634   4.768   7.996 -0.2090 -0.2096 -0.2342
 8239SOL     OW26157   2.278   3.416   5.556 -0.7533  0.6612  0.1437
 8239SOL    HW126158   2.329   3.349   5.511  0.4453  1.5012  0.2010
 8239SOL    HW226159   2.188   3.397   5.532 -0.2600  0.2767 -1.5459
 8240SOL     OW26160   4.687   2.549   5.847  0.7642 -0.6924 -0.0211
 8240SOL    HW126161   4.650   2.531   5.761  1.4030 -0.2320 -0.3995
 8240SOL    HW226162   4.777   2.576   5.829  0.2331  1.7171  0.5680
 8241SOL     OW26163   2.985   7.519   7.104 -0.4045 -0.4269 -0.8215
 8241SOL    HW126164   3.039   7.485   7.033  0.3044 -0.4745 -0.2808
 8241SOL    HW226165   2.997   7.456   7.175 -2.3955 -1.2770 -1.1720
 8242SOL     OW26166   1.427   3.605   5.384  0.0576 -0.1508  0.2469
 8242SOL    HW126167   1.396   3.597   5.475  2.6294  0.4402  1.2446
 8242SOL    HW226168   1.494   3.673   5.387  0.9097 -0.8152 -1.9250
 8243SOL     OW26169   3.811   2.125   7.291 -0.2742  0.0754  0.1794
 8243SOL    HW126170   3.873   2.052   7.283 -1.0599 -0.6072  0.1618
 8243SOL    HW226171   3.768   2.131   7.206 -0.5676  0.2341  0.3350
 8244SOL     OW26172   2.928   3.370   6.683  0.9882  0.1683 -0.3365
 8244SOL    HW126173   3.022   3.351   6.677  0.9233 -0.0245 -0.7430
 8244SOL    HW226174   2.899   3.322   6.761  1.2353  0.2686 -0.1820
 8245SOL     OW26175   1.948   1.914   8.389  0.0616 -0.1297  0.5907
 8245SOL    HW126176   2.014   1.982   8.406 -1.0713  0.6326  2.2364
 8245SOL    HW226177   1.910   1.939   8.305  0.3055  0.7511  0.7238
 8246SOL     OW26178   1.959   0.966   5.159 -0.1021  0.2458  0.2296
 8246SOL    HW126179   1.868   0.977   5.187 -0.4857 -1.7189 -0.0731
 8246SOL    HW226180   1.955   0.964   5.064  0.1887 -0.1637  0.2201
 8247SOL     OW26181   2.991   1.736   6.386  0.0041  0.6429 -0.2820
 8247SOL    HW126182   3.049   1.661   6.371  1.4092  1.7124 -0.4067
 8247SOL    HW226183   3.009   1.794   6.312 -0.2166  1.6044  0.4057
 8248SOL     OW26184   1.351   4.669   5.669  0.1054 -0.9161  0.3589
 8248SOL    HW126185   1.417   4.621   5.720  1.9464  2.2584  1.2416
 8248SOL    HW226186   1.360   4.635   5.580  4.5862  0.6780 -0.0583
 8249SOL     OW26187   4.340   3.438   7.794  0.0349  0.1413  0.0847
 8249SOL    HW126188   4.253   3.477   7.780  0.2339  0.8529  0.7281
 8249SOL    HW226189   4.401   3.510   7.777  0.5694 -0.5980 -1.2803
 8250SOL     OW26190   3.975   2.660   5.070  0.7974 -0.3884  0.2061
 8250SOL    HW126191   3.998   2.567   5.074 -0.6858 -0.9473 -1.9760
 8250SOL    HW226192   4.018   2.691   4.990  2.8632  1.3847  1.8772
 8251SOL     OW26193   3.002   2.119   7.419 -0.0867 -0.2345 -0.3913
 8251SOL    HW126194   3.087   2.077   7.435 -0.0309 -0.2512 -0.7216
 8251SOL    HW226195   3.019   2.183   7.350 -0.4659 -0.6581 -0.8873
 8252SOL     OW26196   1.928   0.190   6.563  0.2607 -0.1894 -0.4464
 8252SOL    HW126197   1.864   0.261   6.571  1.4069  0.7325  0.8916
 8252SOL    HW226198   1.886   0.115   6.604  0.0512  0.4245  0.4730
 8253SOL     OW26199   2.953   1.070   5.438 -0.0188 -0.0265 -0.3409
 8253SOL    HW126200   2.984   1.035   5.522 -0.2677  0.5082 -0.0266
 8253SOL    HW226201   3.034   1.090   5.390  0.1261  0.0009 -0.0896
 8254SOL     OW26202   3.388   2.756   6.221 -0.4903  0.0777 -0.2552
 8254SOL    HW126203   3.363   2.665   6.237 -2.4502  0.4093 -1.2205
 8254SOL    HW226204   3.449   2.752   6.147 -0.4657 -0.4393 -0.2074
 8255SOL     OW26205   3.046   0.183   5.209 -0.3315 -0.1557  0.2438
 8255SOL    HW126206   3.025   0.123   5.137  0.6284  1.8032 -1.7833
 8255SOL    HW226207   3.020   0.135   5.288 -1.3501 -2.4500 -1.3618
 8256SOL     OW26208   3.134   2.648   6.834  0.4409 -0.5861 -0.0288
 8256SOL    HW126209   3.163   2.631   6.744  0.4423 -1.4040  0.1127
 8256SOL    HW226210   3.046   2.610   6.838  0.2487 -0.1215  0.1814
 8257SOL     OW26211   7.989   3.471   6.927  0.4103  0.0313 -0.1997
 8257SOL    HW126212   7.999   3.565   6.920  0.2401  0.0371 -0.3915
 8257SOL    HW226213   8.077   3.438   6.946  0.8281  0.0745 -1.8750
 8258SOL     OW26214   1.891   2.367   7.131  0.2503 -0.6400 -0.2702
 8258SOL    HW126215   1.819   2.401   7.185  1.7610  1.7982  0.3349
 8258SOL    HW226216   1.954   2.332   7.194  0.6909 -0.5395 -0.6507
 8259SOL     OW26217   3.674   2.242   8.417  0.5311 -0.2532 -0.1945
 8259SOL    HW126218   3.662   2.294   8.338  1.7909  0.2703 -0.0633
 8259SOL    HW226219   3.768   2.224   8.420  0.7473  0.9228  1.8950
 8260SOL     OW26220   1.898   4.031   7.466 -0.5065  0.6828  0.6312
 8260SOL    HW126221   1.976   3.982   7.440 -1.3873  0.1702 -1.2385
 8260SOL    HW226222   1.931   4.104   7.518  1.3282  0.9608 -0.8142
 8261SOL     OW26223   3.798   2.756   5.908  0.6439 -0.1669  0.1421
 8261SOL    HW126224   3.703   2.774   5.908  0.6727  0.0029 -0.2409
 8261SOL    HW226225   3.829   2.797   5.828  0.8043 -1.5093 -0.5096
 8262SOL     OW26226   3.409   3.031   6.344 -0.8540 -0.3646  0.0028
 8262SOL    HW126227   3.407   2.961   6.279  0.0761  0.0121 -0.4488
 8262SOL    HW226228   3.441   3.108   6.296 -3.0827  0.7484  0.1460
 8263SOL     OW26229   1.934   2.607   7.337  0.3138  0.1628 -0.2778
 8263SOL    HW126230   1.960   2.524   7.376 -0.1090  0.1485 -0.0141
 8263SOL    HW226231   1.979   2.674   7.389 -0.7511  0.1754  0.6763
 8264SOL     OW26232   3.055   1.221   6.169 -0.3428 -0.1652 -0.8812
 8264SOL    HW126233   3.085   1.278   6.240  0.2156  1.0716 -2.0654
 8264SOL    HW226234   2.967   1.195   6.196  0.3137 -0.7684  0.8490
 8265SOL     OW26235   4.499   2.591   6.570  0.2754 -0.4002 -0.4062
 8265SOL    HW126236   4.436   2.614   6.638  0.2256 -2.5847  0.3429
 8265SOL    HW226237   4.449   2.538   6.507  0.9297 -0.5666 -0.7999
 8266SOL     OW26238   2.682   4.159   5.744 -0.0090 -0.1005  0.0881
 8266SOL    HW126239   2.728   4.120   5.818 -0.5742  0.2544  0.6280
 8266SOL    HW226240   2.589   4.147   5.764 -0.2025  1.4531  0.2376
 8267SOL     OW26241   2.776   2.855   4.277 -0.0500  0.4051 -0.2328
 8267SOL    HW126242   2.738   2.774   4.243  0.4901 -0.0930  0.3195
 8267SOL    HW226243   2.703   2.917   4.277 -0.7767 -0.4056  0.3979
 8268SOL     OW26244   3.709   2.253   6.086  0.4309 -0.7407  0.2816
 8268SOL    HW126245   3.765   2.318   6.044  0.2531 -0.4914  0.4294
 8268SOL    HW226246   3.685   2.193   6.016 -1.2346  0.6104 -0.3718
 8269SOL     OW26247   2.786   0.912   5.015  0.3642  0.1118  0.2871
 8269SOL    HW126248   2.815   0.950   4.933 -0.2742  1.1711  0.5179
 8269SOL    HW226249   2.866   0.885   5.060  0.7331 -0.1615 -0.5349
 8270SOL     OW26250   1.403   1.718   8.432 -0.2253  0.4032  0.5646
 8270SOL    HW126251   1.492   1.741   8.405 -0.2379 -1.3250 -1.2562
 8270SOL    HW226252   1.393   1.627   8.402 -2.5592  0.5230  0.8447
 8271SOL     OW26253   2.415   3.838   6.493 -0.0541 -0.7617  0.0484
 8271SOL    HW126254   2.492   3.864   6.544  0.1385 -2.1802  0.5276
 8271SOL    HW226255   2.347   3.822   6.558 -0.8403  0.6163 -0.3816
 8272SOL     OW26256   3.331   2.495   7.541 -0.3845  0.6017 -0.5716
 8272SOL    HW126257   3.245   2.535   7.556 -0.7075 -0.7604  1.7755
 8272SOL    HW226258   3.393   2.552   7.586 -0.8816 -1.4077  3.0599
 8273SOL     OW26259   2.611   7.218   7.938 -0.2940  0.7071 -0.7687
 8273SOL    HW126260   2.536   7.158   7.945  0.6922 -0.4947  0.0469
 8273SOL    HW226261   2.681   7.164   7.901  0.0826  1.9035 -1.8482
 8274SOL     OW26262   2.013   3.285   5.762  0.4064  0.0998  0.0380
 8274SOL    HW126263   1.954   3.233   5.817  0.5468  1.0186  1.1044
 8274SOL    HW226264   2.097   3.240   5.768  0.5933  0.5461  1.1665
 8275SOL     OW26265   3.817   2.797   5.650  0.2336 -0.4125 -0.1492
 8275SOL    HW126266   3.742   2.832   5.602  2.2657  0.4374 -2.8919
 8275SOL    HW226267   3.872   2.756   5.583  2.2671 -0.9849  1.7606
 8276SOL     OW26268   2.005   2.141   4.834 -0.5183  0.4977  0.3758
 8276SOL    HW126269   1.935   2.137   4.899 -1.1692  0.5927 -0.2971
 8276SOL    HW226270   2.085   2.124   4.883 -1.0751 -0.2248  1.0636
 8277SOL     OW26271   3.038   2.427   5.873  0.6702 -0.5993  0.0340
 8277SOL    HW126272   2.956   2.381   5.857  0.4803  0.2687 -1.7978
 8277SOL    HW226273   3.085   2.373   5.936 -0.0748 -2.6185 -1.0650
 8278SOL     OW26274   2.482   2.004   6.862  0.2638  0.2808  0.3335
 8278SOL    HW126275   2.497   2.067   6.792 -0.6567  0.8618  0.6480
 8278SOL    HW226276   2.398   1.963   6.841  0.7697 -0.7319  0.2229
 8279SOL     OW26277   3.052   4.780   7.103  0.1261 -0.2322 -0.3016
 8279SOL    HW126278   3.103   4.832   7.166 -1.2210 -0.4212  0.9960
 8279SOL    HW226279   3.105   4.702   7.088  0.9105  0.2626 -0.1396
 8280SOL     OW26280   3.369   1.871   5.113 -0.0022 -0.2843 -0.3751
 8280SOL    HW126281   3.445   1.852   5.059 -0.8037 -3.2119 -0.6240
 8280SOL    HW226282   3.313   1.925   5.056  1.6816  1.7356 -0.2549
 8281SOL     OW26283   4.509   2.893   5.445  0.2391 -0.3919  0.4268
 8281SOL    HW126284   4.441   2.826   5.440 -1.1858  1.0189 -0.1556
 8281SOL    HW226285   4.472   2.960   5.503  1.0800  0.4504  0.0213
 8282SOL     OW26286   2.578   2.301   6.028  0.0392  0.0442 -0.4233
 8282SOL    HW126287   2.595   2.273   6.118 -0.6580  0.5840 -0.1122
 8282SOL    HW226288   2.550   2.392   6.037  0.3539  0.2230 -1.2297
 8283SOL     OW26289   1.956   2.682   6.163 -0.4295  0.2520 -0.2467
 8283SOL    HW126290   1.949   2.700   6.256 -1.2231  1.4204 -0.5101
 8283SOL    HW226291   1.942   2.767   6.121  2.8130  0.3610 -1.3641
 8284SOL     OW26292   2.514   3.325   4.170 -0.0370 -0.4996 -0.1862
 8284SOL    HW126293   2.512   3.230   4.182 -1.9432 -0.5553 -0.5268
 8284SOL    HW226294   2.511   3.361   4.259  1.0953 -0.7252 -0.0393
 8285SOL     OW26295   1.338   2.093   9.425  0.3005  0.3514  0.0176
 8285SOL    HW126296   1.322   2.177   9.467 -1.4640 -0.1828  0.4975
 8285SOL    HW226297   1.331   2.111   9.331 -1.7236  0.4783  0.1571
 8286SOL     OW26298   2.836   2.545   8.769  0.1259  0.0467 -0.1327
 8286SOL    HW126299   2.831   2.501   8.854  0.8717  0.2833  0.0419
 8286SOL    HW226300   2.842   2.474   8.705  0.0333 -0.1226  0.0453
 8287SOL     OW26301   2.564   2.258   7.676 -0.7723 -0.0259  0.0209
 8287SOL    HW126302   2.515   2.271   7.757 -1.6108 -1.7641 -0.1613
 8287SOL    HW226303   2.573   2.163   7.668  1.3403  0.1761 -0.7460
 8288SOL     OW26304   1.544   3.038   8.713 -0.4278 -0.7984  0.5799
 8288SOL    HW126305   1.636   3.018   8.699  0.1666  1.2626  1.2756
 8288SOL    HW226306   1.506   3.042   8.625  0.7916  1.0551  0.0892
 8289SOL     OW26307   2.562   2.467   6.798 -0.1594  0.1716 -0.3250
 8289SOL    HW126308   2.576   2.553   6.758  0.5217 -0.2627 -1.0534
 8289SOL    HW226309   2.475   2.473   6.838 -1.1075  0.4935 -2.3104
 8290SOL     OW26310   4.645   2.155   8.274  0.0282 -0.2130 -0.1957
 8290SOL    HW126311   4.722   2.210   8.286 -0.4249  0.1302  1.3611
 8290SOL    HW226312   4.578   2.214   8.238  0.4697 -0.5245 -1.6036
 8291SOL     OW26313   2.676   2.674   7.666 -0.4509 -0.3046 -0.1691
 8291SOL    HW126314   2.727   2.666   7.747 -0.7725 -1.2401 -0.0474
 8291SOL    HW226315   2.703   2.599   7.613 -1.2163 -0.4504 -0.3701
 8292SOL     OW26316   3.100   1.560   7.461  0.2730  0.5973 -0.2922
 8292SOL    HW126317   3.092   1.538   7.368 -2.1637  1.6366 -0.3884
 8292SOL    HW226318   3.180   1.611   7.467  1.1614 -0.5720 -1.5729
 8293SOL     OW26319   4.139   5.641   8.177  0.7640  0.1155 -0.6392
 8293SOL    HW126320   4.170   5.586   8.249  1.1569 -0.2420 -1.0742
 8293SOL    HW226321   4.066   5.592   8.139 -0.5707  1.0928  0.5720
 8294SOL     OW26322   2.498   2.084   9.745 -0.4892 -0.0035 -0.7501
 8294SOL    HW126323   2.420   2.031   9.758 -0.0403 -0.3936  0.4319
 8294SOL    HW226324   2.570   2.021   9.737  0.0856  0.3956  0.9094
 8295SOL     OW26325   1.446   5.624   7.572 -0.3736  0.5099 -0.0208
 8295SOL    HW126326   1.492   5.620   7.489 -0.0758  0.0987  0.1636
 8295SOL    HW226327   1.488   5.558   7.626 -0.7662  0.5656  0.3563
 8296SOL     OW26328   2.480   3.281   9.341 -0.5790 -0.1053  0.7458
 8296SOL    HW126329   2.541   3.214   9.372 -1.8603 -1.0090  1.3841
 8296SOL    HW226330   2.501   3.291   9.249 -0.2578 -1.2729  0.6740
 8297SOL     OW26331   3.267   2.184   7.704  0.6837  0.4756  0.5703
 8297SOL    HW126332   3.185   2.222   7.674  1.1267  1.4507  0.5419
 8297SOL    HW226333   3.294   2.125   7.635  0.1533  0.3773  0.4484
 8298SOL     OW26334   3.537   1.941   8.056  0.4364 -0.4392 -0.4568
 8298SOL    HW126335   3.487   1.930   8.137 -0.2054 -0.5634 -0.8653
 8298SOL    HW226336   3.588   2.021   8.070 -1.2219  0.7142 -0.7212
 8299SOL     OW26337   2.955   2.397   9.340  0.6076 -0.4960  0.2756
 8299SOL    HW126338   2.983   2.313   9.375 -0.1269  0.2990  2.9755
 8299SOL    HW226339   2.873   2.378   9.293 -0.5227 -1.0811  2.3702
 8300SOL     OW26340   2.481   3.718   7.549 -0.5587 -0.3787  0.1795
 8300SOL    HW126341   2.547   3.715   7.480  0.5098  0.5763  1.1359
 8300SOL    HW226342   2.488   3.634   7.593 -1.0766 -0.8954 -0.6821
 8301SOL     OW26343   2.811   4.157   8.190  0.0106 -0.2487 -0.1291
 8301SOL    HW126344   2.746   4.090   8.170  0.7025 -0.6117 -1.2597
 8301SOL    HW226345   2.810   4.215   8.114  0.0167  0.5421  0.4688
 8302SOL     OW26346   3.539   2.803   8.297 -0.1007 -0.0742 -0.0172
 8302SOL    HW126347   3.592   2.850   8.233  0.7193 -0.3913  0.4095
 8302SOL    HW226348   3.465   2.769   8.247  1.2866 -1.6040 -1.1547
 8303SOL     OW26349   3.463   5.296   7.390 -0.2292  0.0453 -0.3037
 8303SOL    HW126350   3.528   5.264   7.327  0.4671 -2.4592  1.4917
 8303SOL    HW226351   3.506   5.368   7.435  1.1987 -1.2552  0.5124
 8304SOL     OW26352   3.657   3.158   9.252  0.1745  0.4784  0.0510
 8304SOL    HW126353   3.712   3.223   9.295 -1.6914  1.2425  1.4229
 8304SOL    HW226354   3.655   3.084   9.312  1.9582 -0.7767 -1.3174
 8305SOL     OW26355   1.547   2.829  10.062 -0.0293  0.0391  0.0979
 8305SOL    HW126356   1.453   2.844  10.051  0.0569  0.4673 -0.0897
 8305SOL    HW226357   1.555   2.737  10.085 -0.6326  0.3399  1.7046
 8306SOL     OW26358   2.625   3.038   9.431  0.3484 -0.4272  0.0329
 8306SOL    HW126359   2.599   2.979   9.360  0.9238 -1.0624  0.3387
 8306SOL    HW226360   2.638   2.981   9.507 -1.9496  0.4125  1.1727
 8307SOL     OW26361   3.803   2.971   7.401  0.0695  0.3529 -0.4508
 8307SOL    HW126362   3.769   2.958   7.312 -1.4926  2.1785 -0.1839
 8307SOL    HW226363   3.774   3.059   7.425 -0.8087 -0.5981  2.4054
 8308SOL     OW26364   2.263   3.798   6.716 -0.1813  0.3082 -0.4740
 8308SOL    HW126365   2.170   3.778   6.710  0.1228 -1.0668 -0.8511
 8308SOL    HW226366   2.294   3.748   6.791  0.1744  1.1223 -0.0653
 8309SOL     OW26367   4.187   3.010   7.874  0.6694 -0.3902 -0.3449
 8309SOL    HW126368   4.170   3.059   7.954 -1.6973 -1.0658 -0.3873
 8309SOL    HW226369   4.189   3.077   7.805 -3.0653 -0.2621 -0.4816
 8310SOL     OW26370   3.049   3.296   8.546 -0.5044 -0.3141  0.0357
 8310SOL    HW126371   3.131   3.282   8.594 -0.7078 -0.5171  0.3314
 8310SOL    HW226372   3.072   3.284   8.454  0.4119  2.4418 -0.1718
 8311SOL     OW26373   3.078   3.914   8.621  0.0155  0.1873 -0.0043
 8311SOL    HW126374   3.100   3.982   8.685  0.4137 -1.4590  1.6953
 8311SOL    HW226375   3.002   3.949   8.575 -0.5855  1.2637  1.7021
 8312SOL     OW26376   2.464   4.185   7.309  1.2624  0.0822 -0.3503
 8312SOL    HW126377   2.557   4.178   7.332  1.3205  3.1323  0.6924
 8312SOL    HW226378   2.418   4.171   7.391  0.8813  0.3229 -0.5214
 8313SOL     OW26379   3.309   3.557   8.652  0.3101 -0.0771 -0.1912
 8313SOL    HW126380   3.389   3.609   8.663 -0.4480  0.7555  1.7899
 8313SOL    HW226381   3.327   3.503   8.575  2.2154  1.1077 -0.6592
 8314SOL     OW26382   2.359   2.616   7.900  0.1080 -0.0471 -0.2149
 8314SOL    HW126383   2.397   2.546   7.847 -0.4424 -0.6383  0.1646
 8314SOL    HW226384   2.435   2.656   7.944  0.9707  2.2006 -3.3640
 8315SOL     OW26385   2.111   3.538   9.990  0.4031 -0.1132  0.0364
 8315SOL    HW126386   2.203   3.552  10.014  0.0839  1.2153  0.5907
 8315SOL    HW226387   2.062   3.590  10.054 -0.8307 -1.9848  0.6949
 8316SOL     OW26388   4.931   2.170   8.260 -0.0134  0.2072 -0.1826
 8316SOL    HW126389   4.973   2.114   8.195 -1.9193 -0.1122 -1.2102
 8316SOL    HW226390   4.899   2.246   8.210 -0.3890  0.5738  0.5928
 8317SOL     OW26391   2.502   3.245   9.044  0.3441  0.3260  0.1095
 8317SOL    HW126392   2.474   3.229   8.954 -0.3404 -0.0547  0.3862
 8317SOL    HW226393   2.567   3.177   9.061 -0.8911 -0.8073  0.5136
 8318SOL     OW26394   2.205   2.523   8.728  0.1738  0.2236 -0.1865
 8318SOL    HW126395   2.230   2.497   8.817 -1.1984  0.6888  0.3629
 8318SOL    HW226396   2.225   2.616   8.724  0.6226  0.1157 -0.5158
 8319SOL     OW26397   2.478   3.030   7.153  0.2870 -0.6375  0.1843
 8319SOL    HW126398   2.526   2.948   7.157 -0.9062 -1.3337  0.7175
 8319SOL    HW226399   2.389   3.007   7.177 -0.2627  0.6686 -0.5066
 8320SOL     OW26400   3.960   2.000   8.509 -0.3456 -0.3733  0.6254
 8320SOL    HW126401   3.883   2.022   8.560 -0.3925 -0.4069  0.5685
 8320SOL    HW226402   3.931   1.931   8.450 -0.5008  0.2074  0.0030
 8321SOL     OW26403   2.893   3.460   8.045 -0.5877  0.0719  0.0153
 8321SOL    HW126404   2.908   3.432   8.135 -2.2872 -1.4517 -0.1235
 8321SOL    HW226405   2.978   3.490   8.015  0.7543 -2.3197  1.1330
 8322SOL     OW26406   3.093   2.195   8.891  0.2537  0.3018 -0.1147
 8322SOL    HW126407   3.178   2.230   8.917  0.6740  1.1571 -2.3844
 8322SOL    HW226408   3.098   2.187   8.796 -2.2944  0.6207 -0.3615
 8323SOL     OW26409   3.097   2.781   9.960  0.0061  0.1481 -0.2232
 8323SOL    HW126410   3.104   2.868   9.999 -0.3230 -0.1024  0.4020
 8323SOL    HW226411   3.010   2.780   9.920 -0.6916 -0.4722  1.2375
 8324SOL     OW26412   2.983   1.919   8.890  0.0242  0.3308 -0.3643
 8324SOL    HW126413   3.046   1.991   8.898 -1.3060  1.4922  0.2858
 8324SOL    HW226414   2.968   1.891   8.981  1.0286 -1.2645 -0.6574
 8325SOL     OW26415   1.714   2.946  10.256  0.1746  0.4468  0.3672
 8325SOL    HW126416   1.649   2.913  10.194  1.6808  0.0298 -1.0465
 8325SOL    HW226417   1.715   3.041  10.243  0.0695  0.4237  0.1952
 8326SOL     OW26418   3.783   2.628   8.067 -0.1324  0.2617 -0.0236
 8326SOL    HW126419   3.859   2.613   8.124 -0.0842  0.6131  0.0096
 8326SOL    HW226420   3.799   2.714   8.028  0.4605 -0.5129 -1.5645
 8327SOL     OW26421   2.149   2.563   9.535 -0.7839 -0.4086  0.1604
 8327SOL    HW126422   2.226   2.510   9.559 -0.3649  0.1926  0.1700
 8327SOL    HW226423   2.093   2.502   9.487  0.6782 -0.3520 -1.7491
 8328SOL     OW26424   2.866   2.980   8.239 -0.7127 -0.0621  0.0092
 8328SOL    HW126425   2.830   2.991   8.151  0.3905 -2.3350 -0.7892
 8328SOL    HW226426   2.944   3.035   8.240  0.0840 -1.1227 -0.9874
 8329SOL     OW26427   2.203   2.750   9.330  0.1980  0.2082 -0.2092
 8329SOL    HW126428   2.182   2.701   9.409 -0.3048  0.5895 -0.1004
 8329SOL    HW226429   2.139   2.721   9.266  1.8146 -1.5797 -1.1176
 8330SOL     OW26430   2.891   3.339   9.119 -0.3302 -0.2937  0.1704
 8330SOL    HW126431   2.882   3.391   9.199 -0.7869  0.0510 -0.1052
 8330SOL    HW226432   2.986   3.329   9.108 -0.2662 -0.5942  0.9136
 8331SOL     OW26433   3.087   4.385   6.811  0.4997  0.1295 -0.0145
 8331SOL    HW126434   3.151   4.350   6.873  1.9499  0.1053 -1.4816
 8331SOL    HW226435   3.077   4.317   6.745  1.7690  1.5353 -1.7705
 8332SOL     OW26436   2.152   0.624   9.375  0.0371 -0.1487  0.4583
 8332SOL    HW126437   2.233   0.655   9.413  1.0482 -1.0672 -0.8604
 8332SOL    HW226438   2.178   0.583   9.292 -1.8699  0.3479 -0.4385
 8333SOL     OW26439   3.911   3.673   7.548  0.2831 -0.1333  0.0428
 8333SOL    HW126440   3.839   3.621   7.512  0.0992 -0.1760  0.4638
 8333SOL    HW226441   3.983   3.611   7.557  0.5559  0.0338 -0.9063
 8334SOL     OW26442   0.227   4.437   7.128  0.1776  0.0614 -0.2517
 8334SOL    HW126443   0.173   4.373   7.175 -0.5698  1.4611  0.9062
 8334SOL    HW226444   0.206   4.424   7.036 -1.7792  0.1878  0.1269
 8335SOL     OW26445   3.496   3.148   7.640 -0.1365  0.0497 -0.3903
 8335SOL    HW126446   3.576   3.141   7.692 -0.4368  3.5980  0.8900
 8335SOL    HW226447   3.525   3.181   7.555  0.0385 -2.4426 -1.3531
 8336SOL     OW26448   2.650   2.271   9.624  0.0767 -0.0171  0.1978
 8336SOL    HW126449   2.585   2.201   9.634  1.4027 -1.1535  1.2755
 8336SOL    HW226450   2.733   2.230   9.648  1.0028  1.7587  0.1709
 8337SOL     OW26451   1.166   2.203   7.814 -0.3323  0.0470  0.0491
 8337SOL    HW126452   1.077   2.182   7.786 -0.6547  0.5965  0.6175
 8337SOL    HW226453   1.220   2.132   7.780 -0.9510 -0.1571 -0.5227
 8338SOL     OW26454   4.344   2.752   8.396 -0.4259  0.1056  0.1915
 8338SOL    HW126455   4.272   2.761   8.334 -1.1137 -1.2684  0.7597
 8338SOL    HW226456   4.383   2.839   8.399 -0.9517  0.4336 -1.4514
 8339SOL     OW26457   1.603   5.107  11.339 -0.1191  0.1991 -0.0657
 8339SOL    HW126458   1.640   5.059  11.413  0.5570  1.8509  0.7240
 8339SOL    HW226459   1.646   5.070  11.262  0.2325 -0.5757  0.4884
 8340SOL     OW26460   2.788   1.197   7.197  0.0912 -0.5499 -0.1343
 8340SOL    HW126461   2.775   1.186   7.292 -1.2533 -1.7498 -0.4218
 8340SOL    HW226462   2.787   1.292   7.184 -1.7940 -0.3818  0.8302
 8341SOL     OW26463   4.043   2.952   9.067  0.1412 -0.4120 -0.1860
 8341SOL    HW126464   3.964   2.909   9.034  0.2982  0.0363 -1.1595
 8341SOL    HW226465   4.094   2.973   8.989 -0.5880  2.8530  0.0857
 8342SOL     OW26466   2.759   2.425   7.612  0.5854  0.1505 -0.0146
 8342SOL    HW126467   2.828   2.362   7.634 -0.8966 -0.6226  3.0043
 8342SOL    HW226468   2.678   2.375   7.619 -0.5945  2.1415  1.6257
 8343SOL     OW26469   2.744   1.615   8.186  0.6456 -0.2550  0.5637
 8343SOL    HW126470   2.671   1.627   8.247 -0.1402 -0.5047 -0.3013
 8343SOL    HW226471   2.817   1.662   8.226 -0.1325  0.4343  1.2068
 8344SOL     OW26472   1.848   3.368   8.992  0.0632  0.0076  0.2780
 8344SOL    HW126473   1.899   3.339   9.068  1.1407  0.5734 -0.2066
 8344SOL    HW226474   1.912   3.410   8.935 -0.8395  0.1324 -0.6727
 8345SOL     OW26475   1.256   3.767   8.260 -0.0418 -0.1274  0.1624
 8345SOL    HW126476   1.299   3.778   8.345  1.2730 -0.2146 -0.4665
 8345SOL    HW226477   1.283   3.843   8.209 -0.4353 -0.3145 -0.3340
 8346SOL     OW26478   3.179   3.012   7.321  0.4544 -0.5646 -0.3736
 8346SOL    HW126479   3.189   3.072   7.247 -3.3227  1.2331  0.3759
 8346SOL    HW226480   3.187   3.068   7.399  0.8636 -1.8066  0.5170
 8347SOL     OW26481   4.272   0.206   9.606  0.2885 -0.5184  0.0878
 8347SOL    HW126482   4.332   0.278   9.587  1.4488 -1.0081  1.7704
 8347SOL    HW226483   4.220   0.198   9.525  0.5161  1.7757 -0.3782
 8348SOL     OW26484   2.057   1.324   8.583  0.1301  0.0482 -0.0551
 8348SOL    HW126485   2.014   1.340   8.499  0.8132  0.8416 -0.2644
 8348SOL    HW226486   2.089   1.409   8.610  0.2683 -0.2741  0.8253
 8349SOL     OW26487   3.042   1.783   7.654  0.7199  0.1246 -0.2116
 8349SOL    HW126488   3.064   1.716   7.590 -0.5687  1.3253 -2.0280
 8349SOL    HW226489   2.956   1.815   7.627  0.4995  1.2766  1.6465
 8350SOL     OW26490   2.871   3.732   8.150 -0.4896  0.4443 -0.0405
 8350SOL    HW126491   2.929   3.693   8.084 -0.1013 -0.6743  0.9301
 8350SOL    HW226492   2.931   3.770   8.215 -0.8528  0.1177  0.4906
 8351SOL     OW26493   3.075   1.713  10.049 -0.4655 -0.2859  0.3311
 8351SOL    HW126494   3.076   1.652   9.975  0.1040  0.0205  0.0833
 8351SOL    HW226495   2.990   1.757  10.042  0.3463  1.1049 -1.2810
 8352SOL     OW26496   2.761   2.010   8.104  0.4493  0.3253 -0.0046
 8352SOL    HW126497   2.788   2.097   8.133 -0.6975  0.2735  1.3474
 8352SOL    HW226498   2.681   1.992   8.155 -0.4188 -0.7178 -1.6639
 8353SOL     OW26499   3.069   0.841   6.819 -0.2043  0.1770 -0.1128
 8353SOL    HW126500   3.004   0.907   6.794 -0.6722 -0.6924 -1.2522
 8353SOL    HW226501   3.021   0.759   6.819  1.1251 -0.6649 -2.1931
 8354SOL     OW26502   1.925   1.346   7.831 -0.0154  0.1209  0.5810
 8354SOL    HW126503   1.874   1.268   7.852  1.9353 -0.9173  1.6635
 8354SOL    HW226504   1.929   1.347   7.735  0.8126 -1.7506  0.5541
 8355SOL     OW26505   3.019   3.481   7.745  0.6754 -0.7871 -0.8136
 8355SOL    HW126506   3.095   3.535   7.767  0.7443 -1.2507  0.1180
 8355SOL    HW226507   2.951   3.544   7.721  0.4846 -0.2081  1.0894
 8356SOL     OW26508   0.793   2.100   7.966  0.3177 -0.1159 -0.3020
 8356SOL    HW126509   0.761   2.166   7.905  2.6248  1.1015 -0.3203
 8356SOL    HW226510   0.733   2.105   8.041 -0.5380  0.7878 -1.0274
 8357SOL     OW26511   4.725   2.643   6.794  0.3171 -0.3912  0.1438
 8357SOL    HW126512   4.665   2.606   6.729  0.6554 -1.0711  0.2044
 8357SOL    HW226513   4.762   2.720   6.752 -2.2409  1.3915  0.9075
 8358SOL     OW26514   3.628   1.750   8.589  0.1492  0.2265 -0.2250
 8358SOL    HW126515   3.706   1.699   8.567  0.8204  1.1365 -0.0508
 8358SOL    HW226516   3.617   1.810   8.515  0.4504  1.0394  0.3664
 8359SOL     OW26517   1.434   2.678   7.973 -0.8851  0.3919  0.7064
 8359SOL    HW126518   1.340   2.679   7.990 -0.6131 -0.5277  2.4805
 8359SOL    HW226519   1.456   2.586   7.963  0.0739  0.4345  2.0561
 8360SOL     OW26520   3.817   2.963   8.105  0.1499  0.0983  0.1519
 8360SOL    HW126521   3.885   2.936   8.167  0.8135  1.5221  0.0796
 8360SOL    HW226522   3.842   3.052   8.080 -0.4348 -0.2263 -1.7095
 8361SOL     OW26523   1.267   1.765   9.065 -0.0264 -0.5929  0.2408
 8361SOL    HW126524   1.244   1.716   9.144 -0.7589 -0.5022  0.0903
 8361SOL    HW226525   1.219   1.721   8.994 -0.9714  0.5233  0.1506
 8362SOL     OW26526   1.726   2.402   9.168 -0.3207  0.3454  0.2174
 8362SOL    HW126527   1.808   2.380   9.212 -1.5704 -1.2219  1.9281
 8362SOL    HW226528   1.742   2.488   9.129  2.8310 -0.8593 -1.4946
 8363SOL     OW26529   3.167   2.016   8.269 -0.6040 -0.2565  0.2261
 8363SOL    HW126530   3.224   2.087   8.241 -0.5148 -0.4182 -0.0099
 8363SOL    HW226531   3.128   1.983   8.188 -0.4558 -0.6364  0.3072
 8364SOL     OW26532   2.309   2.221   7.066  0.1367 -0.2287  0.6553
 8364SOL    HW126533   2.311   2.303   7.018 -1.2323  0.5442  1.8269
 8364SOL    HW226534   2.401   2.196   7.075  0.4794  0.0068 -1.5767
 8365SOL     OW26535   3.294   2.547   7.907  0.1814  0.2296  0.9418
 8365SOL    HW126536   3.313   2.466   7.954 -0.7423 -0.2273  0.5470
 8365SOL    HW226537   3.230   2.522   7.840 -1.1840  1.5180  1.7011
 8366SOL     OW26538   4.328   2.586   8.062  0.5455 -0.0455 -0.4959
 8366SOL    HW126539   4.288   2.657   8.113  0.0859  0.3068 -1.3220
 8366SOL    HW226540   4.300   2.603   7.972  2.1510 -0.0869 -1.0273
 8367SOL     OW26541   3.589   2.494   7.700 -0.0210 -0.6477  0.3966
 8367SOL    HW126542   3.678   2.519   7.676 -0.4189 -1.4366 -2.2282
 8367SOL    HW226543   3.557   2.566   7.755  1.3906  0.8481 -0.6648
 8368SOL     OW26544   1.761   3.310   6.733  0.1145  0.3941  0.2946
 8368SOL    HW126545   1.741   3.335   6.643 -0.5763 -1.0068  0.0280
 8368SOL    HW226546   1.775   3.393   6.779 -0.4392  1.1629 -0.8882
 8369SOL     OW26547   3.176   0.404   7.976  0.1325 -0.1075 -0.3775
 8369SOL    HW126548   3.221   0.332   8.020  0.4636 -0.1570 -0.7964
 8369SOL    HW226549   3.227   0.482   7.999  1.2631 -0.3328 -1.9527
 8370SOL     OW26550   1.199   2.255   9.616 -0.0744 -0.3453  0.5299
 8370SOL    HW126551   1.269   2.300   9.664 -0.6279  2.4119 -1.0846
 8370SOL    HW226552   1.122   2.310   9.628 -1.1251 -1.5226 -0.5273
 8371SOL     OW26553   4.963   0.905   7.229  0.0284  0.3149  0.6919
 8371SOL    HW126554   5.046   0.857   7.230 -0.3000 -0.3471  2.8892
 8371SOL    HW226555   4.916   0.872   7.152  1.0976 -0.5729  0.3934
 8372SOL     OW26556   2.538   2.213   8.546 -0.4903  0.1978  0.0190
 8372SOL    HW126557   2.503   2.161   8.474  0.2919 -1.0448  0.5056
 8372SOL    HW226558   2.582   2.287   8.503  0.0518 -0.5788 -0.7972
 8373SOL     OW26559   3.341   2.628   8.953  0.1478  0.1601  0.2611
 8373SOL    HW126560   3.423   2.628   8.903 -0.0652 -0.2292 -0.0957
 8373SOL    HW226561   3.333   2.717   8.986  0.5251  0.3037 -0.0238
 8374SOL     OW26562   2.853   4.462   7.351  0.3916  0.1709  0.3136
 8374SOL    HW126563   2.931   4.488   7.302  0.7350 -1.0940  0.1627
 8374SOL    HW226564   2.884   4.394   7.411 -0.6027 -0.3848  0.2092
 8375SOL     OW26565   1.452   2.807   8.829 -1.1090  0.1705 -0.0371
 8375SOL    HW126566   1.509   2.767   8.763  0.4094 -0.7106  1.6939
 8375SOL    HW226567   1.472   2.900   8.824  2.8981 -0.3117  2.4318
 8376SOL     OW26568   3.815   1.458   9.486  0.5096  0.8250  0.3167
 8376SOL    HW126569   3.844   1.536   9.440 -1.1689  1.3282  0.0181
 8376SOL    HW226570   3.805   1.486   9.577  0.9618  0.6549  0.4184
 8377SOL     OW26571   1.633   3.693   7.574  0.0178 -0.1444  0.0662
 8377SOL    HW126572   1.611   3.619   7.518  3.1071 -1.9466  0.9938
 8377SOL    HW226573   1.573   3.687   7.648 -4.0979  2.2330 -2.6342
 8378SOL     OW26574   2.160   4.397   6.650  0.0847  0.1916 -0.6707
 8378SOL    HW126575   2.238   4.449   6.630  1.0883 -0.4271  1.3096
 8378SOL    HW226576   2.161   4.327   6.585  0.9456  0.4441 -0.9485
 8379SOL     OW26577   2.660   3.547   7.281 -0.0575  0.0759  0.9055
 8379SOL    HW126578   2.700   3.619   7.329 -0.1630  0.4502  0.4325
 8379SOL    HW226579   2.712   3.539   7.202 -0.9712  0.6437  0.2295
 8380SOL     OW26580   3.586   2.793   7.542  0.4074 -0.2169  0.1225
 8380SOL    HW126581   3.565   2.753   7.627  0.7033 -1.5498 -0.4108
 8380SOL    HW226582   3.659   2.852   7.562 -0.1539  0.2184  0.9630
 8381SOL     OW26583   2.875   2.956   7.417  0.0355  0.0678  0.5790
 8381SOL    HW126584   2.951   2.963   7.475  0.7905 -1.1587 -0.2184
 8381SOL    HW226585   2.868   2.863   7.397 -0.9713  0.3121 -0.3161
 8382SOL     OW26586   2.374   4.996   6.487  0.0573  0.7802  0.0664
 8382SOL    HW126587   2.325   5.010   6.406 -1.6321  0.5856  1.0113
 8382SOL    HW226588   2.386   5.083   6.523  0.2198  0.8065 -0.0485
 8383SOL     OW26589   4.585   2.066   8.015 -0.3828 -0.0768  0.5482
 8383SOL    HW126590   4.668   2.092   7.974  0.1229 -0.0363  1.5550
 8383SOL    HW226591   4.608   2.052   8.107 -1.5063 -0.0460  0.8423
 8384SOL     OW26592   2.674   4.797   8.422  0.5935  0.7088  0.1947
 8384SOL    HW126593   2.656   4.724   8.363  0.0246  0.2094  0.9629
 8384SOL    HW226594   2.756   4.834   8.391  1.0144 -0.4090 -0.0667
 8385SOL     OW26595   2.587   4.134   9.809 -0.2304 -0.2194 -0.1656
 8385SOL    HW126596   2.588   4.051   9.761 -0.7189 -0.6912  0.6275
 8385SOL    HW226597   2.658   4.184   9.770 -1.1258 -0.2396 -1.9912
 8386SOL     OW26598   3.917   1.390   7.634 -0.2941  0.6779 -0.5107
 8386SOL    HW126599   3.968   1.432   7.703  1.2690 -2.3530  0.3122
 8386SOL    HW226600   3.845   1.452   7.617  0.2465  2.3282  2.5440
 8387SOL     OW26601   2.872   3.720   8.927  0.3122 -0.0891  0.5247
 8387SOL    HW126602   2.961   3.712   8.893  0.8335 -0.7103  1.9748
 8387SOL    HW226603   2.882   3.727   9.022 -1.0350  2.6382  0.5819
 8388SOL     OW26604   1.976   2.355   9.006  0.4925  0.3810  0.0371
 8388SOL    HW126605   2.037   2.283   8.996 -0.0125 -0.0305 -0.1656
 8388SOL    HW226606   1.943   2.371   8.917  0.4751  0.7467  0.1070
 8389SOL     OW26607   2.361   3.707   9.116 -0.5158 -0.2152 -0.1649
 8389SOL    HW126608   2.324   3.753   9.191  1.0560 -0.0006  0.5176
 8389SOL    HW226609   2.455   3.704   9.133 -0.3094 -1.6432 -1.3296
 8390SOL     OW26610   2.900   1.986  10.318 -0.4385  0.3536 -0.3740
 8390SOL    HW126611   2.964   1.916  10.317 -2.3978 -1.5574 -0.6679
 8390SOL    HW226612   2.950   2.066  10.301  1.7810 -1.0404 -0.7270
 8391SOL     OW26613   3.228   2.459   8.556  0.3496  0.4064  0.1804
 8391SOL    HW126614   3.277   2.485   8.478 -0.1583  3.2105  0.6804
 8391SOL    HW226615   3.190   2.375   8.533  1.8572  0.1857 -1.8298
 8392SOL     OW26616   2.852   6.221   6.935 -0.6225  0.1639  0.0505
 8392SOL    HW126617   2.923   6.156   6.941 -0.5140  0.3083  0.3567
 8392SOL    HW226618   2.825   6.218   6.844  0.1001  0.4453 -0.1845
 8393SOL     OW26619   3.508   2.863   9.702  0.3296  0.4743  0.2529
 8393SOL    HW126620   3.502   2.875   9.797  1.7251 -0.5167  0.4984
 8393SOL    HW226621   3.427   2.818   9.679  0.7653 -0.9243  1.2933
 8394SOL     OW26622   3.449   2.112   7.208  0.7630 -0.1244  0.2277
 8394SOL    HW126623   3.427   2.115   7.301  0.4482  1.1722  0.1301
 8394SOL    HW226624   3.483   2.024   7.194  1.8723 -0.0017  1.8194
 8395SOL     OW26625   2.098   2.637  10.388  0.0249  0.0979 -0.0776
 8395SOL    HW126626   2.028   2.656  10.326 -1.3778 -2.7239  0.4849
 8395SOL    HW226627   2.069   2.678  10.470 -0.9734 -0.9349  0.1157
 8396SOL     OW26628   1.712   5.288   7.864 -0.1403  0.1634  0.1592
 8396SOL    HW126629   1.762   5.363   7.835  2.1304 -0.4010  2.2877
 8396SOL    HW226630   1.723   5.223   7.794 -1.7243  1.5330 -1.4652
 8397SOL     OW26631   2.702   4.146   8.681 -0.6080  0.4100 -0.1027
 8397SOL    HW126632   2.774   4.205   8.657 -0.1164  0.1682  0.7534
 8397SOL    HW226633   2.724   4.117   8.769  0.2407 -2.6688 -1.2095
 8398SOL     OW26634   3.093   3.012  10.075  0.0644  0.3356  0.7151
 8398SOL    HW126635   3.068   3.093  10.029  0.3601  1.2367  2.0940
 8398SOL    HW226636   3.021   2.997  10.136 -1.2569 -1.8867 -1.1882
 8399SOL     OW26637   0.570   7.889   7.241 -0.0311 -0.0912 -0.1414
 8399SOL    HW126638   0.644   7.828   7.247 -0.5907 -0.6969  0.9717
 8399SOL    HW226639   0.551   7.912   7.332 -1.6219 -0.4511 -0.3534
 8400SOL     OW26640   3.282   2.256   8.193  0.1592  0.0149 -0.1686
 8400SOL    HW126641   3.291   2.340   8.238  0.2849  0.0753 -0.3056
 8400SOL    HW226642   3.323   2.270   8.108  0.2769 -0.2170 -0.1519
 8401SOL     OW26643   3.148   4.253   8.530 -0.1175  0.2041 -0.0777
 8401SOL    HW126644   3.141   4.194   8.454  0.0611 -0.4764  0.4276
 8401SOL    HW226645   3.206   4.322   8.500  1.2666 -0.9015 -0.0590
 8402SOL     OW26646   2.690   3.443   9.745 -0.3477  0.7598  0.2363
 8402SOL    HW126647   2.650   3.530   9.749 -1.5694  0.2022  0.7137
 8402SOL    HW226648   2.648   3.400   9.671 -0.7799  0.1049  0.8435
 8403SOL     OW26649   2.470   4.593   7.689 -0.0806 -0.0680  0.1212
 8403SOL    HW126650   2.376   4.610   7.694 -0.4475 -1.8336 -0.0940
 8403SOL    HW226651   2.501   4.650   7.619 -0.9127  0.8401  0.4787
 8404SOL     OW26652   2.533   2.819   7.462  0.3414 -0.2661 -0.9412
 8404SOL    HW126653   2.459   2.796   7.517 -0.0908  2.2391 -0.3679
 8404SOL    HW226654   2.610   2.791   7.512 -0.1047  0.5744  0.2662
 8405SOL     OW26655   1.625   2.205   6.101 -0.3203 -0.2902  0.4300
 8405SOL    HW126656   1.682   2.203   6.024  0.9701  0.5316  1.3231
 8405SOL    HW226657   1.582   2.120   6.101  1.5774 -1.3046  0.2074
 8406SOL     OW26658   3.624   3.851   6.969  0.0623  0.6970 -0.0452
 8406SOL    HW126659   3.560   3.918   6.992 -0.2395  0.7254 -0.9070
 8406SOL    HW226660   3.650   3.874   6.879 -1.2547 -1.2387 -0.9847
 8407SOL     OW26661   2.819   3.239   9.450  0.1220 -0.5051  0.0584
 8407SOL    HW126662   2.775   3.157   9.426 -1.1712  0.4120 -0.8480
 8407SOL    HW226663   2.871   3.216   9.528 -0.8622 -1.9781  0.3357
 8408SOL     OW26664   0.437   2.744   7.429  0.4754  0.3026 -0.2349
 8408SOL    HW126665   0.354   2.713   7.392  0.8012 -0.5109 -0.3088
 8408SOL    HW226666   0.423   2.838   7.444 -0.4730  0.1715 -0.2046
 8409SOL     OW26667   3.776   2.293   9.358 -0.0833 -0.3230 -0.0211
 8409SOL    HW126668   3.822   2.215   9.390 -0.0714 -1.1918 -2.0440
 8409SOL    HW226669   3.843   2.344   9.313 -0.6204 -0.5050 -1.0585
 8410SOL     OW26670   3.574   1.648   9.717 -0.6014 -0.5037 -1.0003
 8410SOL    HW126671   3.639   1.696   9.768  0.2189 -2.2134 -0.3647
 8410SOL    HW226672   3.493   1.658   9.766  0.1379 -1.9883  0.6264
 8411SOL     OW26673   1.675   2.550   8.224 -0.8213 -0.8030  0.5926
 8411SOL    HW126674   1.717   2.472   8.260 -0.8605 -0.5906  1.0951
 8411SOL    HW226675   1.724   2.623   8.261 -0.5254 -0.5903 -0.1949
 8412SOL     OW26676   2.273   5.302   5.362 -0.2923 -0.0464  0.3965
 8412SOL    HW126677   2.321   5.244   5.304 -2.3326 -2.0955  0.6099
 8412SOL    HW226678   2.338   5.366   5.392  1.3551 -0.3419 -2.2247
 8413SOL     OW26679   1.861   3.841   9.747 -0.5544  0.2152  0.0936
 8413SOL    HW126680   1.790   3.779   9.730 -0.8085  1.0835 -2.5346
 8413SOL    HW226681   1.822   3.908   9.802 -1.3213 -0.1295 -0.0177
 8414SOL     OW26682   2.790   3.098   8.728 -0.3523  0.2021  0.6413
 8414SOL    HW126683   2.867   3.070   8.776 -0.7455 -2.6942 -0.2144
 8414SOL    HW226684   2.716   3.062   8.777 -0.9636  0.1603 -0.2786
 8415SOL     OW26685   0.019   2.381   9.449 -0.1640 -0.1319  0.3316
 8415SOL    HW126686  -0.050   2.369   9.383  0.2824 -1.6584  0.0956
 8415SOL    HW226687   0.071   2.300   9.444  1.3128  0.7428  0.8890
 8416SOL     OW26688   2.691   2.410   8.428  0.4128  0.8505  0.9745
 8416SOL    HW126689   2.752   2.363   8.485  0.2050  0.8906  1.2348
 8416SOL    HW226690   2.685   2.497   8.467  0.5830  1.0044  0.6536
 8417SOL     OW26691   4.029   2.507   9.683 -0.1396  0.1611  0.1795
 8417SOL    HW126692   4.086   2.583   9.698  0.0492 -0.2694  1.7797
 8417SOL    HW226693   3.953   2.543   9.638 -0.5151  1.5062  1.7860
 8418SOL     OW26694   2.760   2.861   8.847 -0.0899 -0.2520  0.0350
 8418SOL    HW126695   2.838   2.911   8.867  1.4285 -2.3074 -0.4206
 8418SOL    HW226696   2.719   2.845   8.932  0.1059  0.6378  0.3015
 8419SOL     OW26697   3.365   2.493   8.303  0.0627  0.4176  0.3420
 8419SOL    HW126698   3.460   2.485   8.293 -0.0236  1.5019 -2.2843
 8419SOL    HW226699   3.343   2.574   8.256 -2.1730  0.0915  0.7209
 8420SOL     OW26700   3.069   2.948   7.594 -0.8004 -0.7258  0.3921
 8420SOL    HW126701   3.164   2.937   7.591 -0.8642 -1.5314  0.9716
 8420SOL    HW226702   3.056   3.042   7.603 -0.0087 -0.7389  1.9804
 8421SOL     OW26703   3.264   2.363   9.033  0.0235 -0.2122 -0.0167
 8421SOL    HW126704   3.211   2.393   9.107  0.5892  0.8325 -0.0104
 8421SOL    HW226705   3.286   2.443   8.985  0.6140 -0.7548 -0.6811
 8422SOL     OW26706   2.615   4.583   8.993 -0.1563 -0.0171  0.0581
 8422SOL    HW126707   2.696   4.576   9.043  0.9606  0.8089 -1.5669
 8422SOL    HW226708   2.587   4.493   8.980  0.4542 -0.3084  0.7045
 8423SOL     OW26709   2.235   3.050   7.768  0.2040 -0.0713  0.6046
 8423SOL    HW126710   2.184   3.079   7.843  2.5829 -0.7607  2.6000
 8423SOL    HW226711   2.307   3.000   7.805 -0.2618 -3.3239 -2.3070
 8424SOL     OW26712   1.654   3.476   7.370  0.0717 -0.7197 -0.2127
 8424SOL    HW126713   1.734   3.424   7.361  1.1123  0.3558  2.0174
 8424SOL    HW226714   1.679   3.563   7.339 -0.5092 -0.6174 -0.3896
 8425SOL     OW26715   3.289   3.574   8.962 -0.1565 -0.4522 -0.5710
 8425SOL    HW126716   3.373   3.619   8.962 -0.3067 -0.1579  0.0938
 8425SOL    HW226717   3.272   3.555   8.870  0.8363 -0.8988 -0.6758
 8426SOL     OW26718   2.435   2.956   7.909 -0.0962 -0.1288 -0.4467
 8426SOL    HW126719   2.510   3.009   7.881 -0.3648  1.0156  0.9024
 8426SOL    HW226720   2.475   2.879   7.949  0.3088 -0.5266 -1.5708
 8427SOL     OW26721   1.034   2.349   8.314  0.2047 -0.2986 -0.0512
 8427SOL    HW126722   1.121   2.319   8.342  1.0739 -2.1345 -4.0426
 8427SOL    HW226723   0.974   2.280   8.341  0.0453  0.4680  1.7446
 8428SOL     OW26724   2.419   4.252   6.943  0.0513  0.0996  0.3665
 8428SOL    HW126725   2.409   4.157   6.950  0.7567  0.1449  2.4960
 8428SOL    HW226726   2.449   4.266   6.853  0.7865 -1.7823  0.2680
 8429SOL     OW26727   2.192   3.642   8.623 -0.1053  0.2997  0.0052
 8429SOL    HW126728   2.247   3.649   8.545  0.0860 -1.9322 -0.1406
 8429SOL    HW226729   2.103   3.646   8.589 -0.0272  0.3502 -0.1959
 8430SOL     OW26730   3.615   2.392   8.661 -0.0866  0.0026 -0.1110
 8430SOL    HW126731   3.628   2.344   8.579  2.1904 -0.1769  0.2975
 8430SOL    HW226732   3.567   2.331   8.717 -0.7425 -0.2691 -0.9469
 8431SOL     OW26733   3.151   2.544   9.256  0.0743  0.5853 -0.4741
 8431SOL    HW126734   3.120   2.586   9.175  1.4627 -0.3070 -1.5152
 8431SOL    HW226735   3.076   2.494   9.287 -0.8599  1.8900 -0.5250
 8432SOL     OW26736   2.635   3.265  10.104 -0.0210  0.1295 -0.3674
 8432SOL    HW126737   2.617   3.354  10.075  1.1256  0.7536  0.7487
 8432SOL    HW226738   2.712   3.239  10.054  0.4415  0.2666  0.2686
 8433SOL     OW26739   1.956   2.137   7.514 -0.1804  0.3964  0.1905
 8433SOL    HW126740   1.930   2.047   7.531 -1.7424  0.4481 -1.6756
 8433SOL    HW226741   1.889   2.190   7.558 -0.4468  0.6121 -0.4748
 8434SOL     OW26742   2.474   5.097   7.433 -0.5693 -0.3755 -0.0218
 8434SOL    HW126743   2.540   5.057   7.489  0.1597 -1.4521 -1.5930
 8434SOL    HW226744   2.491   5.191   7.439  0.4235 -0.5737  0.4333
 8435SOL     OW26745   2.325   3.157   6.796  0.0107  0.3122  0.2903
 8435SOL    HW126746   2.389   3.220   6.832 -0.1921 -0.0187  1.2676
 8435SOL    HW226747   2.268   3.211   6.742 -0.0546  0.9566  0.9725
 8436SOL     OW26748   1.793   3.400  10.364  0.4815 -0.0930 -0.0842
 8436SOL    HW126749   1.859   3.331  10.356 -1.1181 -1.5720 -1.0172
 8436SOL    HW226750   1.711   3.354  10.377 -0.9277  1.4886 -2.5527
 8437SOL     OW26751   1.945   2.107   7.941  0.3872  0.2455  0.0281
 8437SOL    HW126752   1.942   2.060   8.024 -1.1643  1.2051  0.5652
 8437SOL    HW226753   1.872   2.070   7.891  0.7870  0.2696 -0.5751
 8438SOL     OW26754   3.957   4.062   7.497 -0.8237  0.5449 -0.6273
 8438SOL    HW126755   3.974   4.156   7.491  0.5901  0.4831  1.2866
 8438SOL    HW226756   3.951   4.032   7.406  3.4860  1.7159 -1.5229
 8439SOL     OW26757   2.631   3.890   9.697 -0.7265 -0.6363 -0.0467
 8439SOL    HW126758   2.713   3.848   9.674 -0.0583  0.5502  0.0593
 8439SOL    HW226759   2.570   3.818   9.715  0.6438 -1.5397  1.1411
 8440SOL     OW26760   2.763   0.348   7.377  0.7174  0.4009  0.2338
 8440SOL    HW126761   2.790   0.290   7.448 -0.1182 -0.1900  0.0870
 8440SOL    HW226762   2.752   0.434   7.418 -2.3321 -0.4445  1.4469
 8441SOL     OW26763   3.452   3.863   7.792 -0.2348 -0.1212 -0.3307
 8441SOL    HW126764   3.388   3.794   7.807 -0.4307  0.4248  1.7230
 8441SOL    HW226765   3.414   3.917   7.723 -0.9290 -1.0376 -0.6778
 8442SOL     OW26766   1.983   4.157   8.215 -1.0861  0.0336 -0.2261
 8442SOL    HW126767   2.073   4.124   8.216 -0.8973  0.5451  0.3647
 8442SOL    HW226768   1.931   4.084   8.182 -0.5217 -0.4473 -0.0697
 8443SOL     OW26769   1.262   3.562   8.081 -0.0279 -0.3014 -0.3778
 8443SOL    HW126770   1.273   3.609   7.998  1.0653  1.1829  0.5470
 8443SOL    HW226771   1.247   3.631   8.146 -0.4308 -1.3986  0.7411
 8444SOL     OW26772   1.296   4.045   8.179  0.2424 -0.6475  0.7712
 8444SOL    HW126773   1.366   4.097   8.140  0.2776 -1.8164 -0.8230
 8444SOL    HW226774   1.313   4.047   8.273  0.5180  1.7708  0.7310
 8445SOL     OW26775   4.809   2.982   9.138  0.1394 -0.4992  0.4173
 8445SOL    HW126776   4.821   2.923   9.213  3.1454 -1.6918 -0.8380
 8445SOL    HW226777   4.754   2.933   9.077  0.3323 -0.8654  0.5347
 8446SOL     OW26778   2.495   4.043   8.358  0.3154  0.3972 -0.3428
 8446SOL    HW126779   2.555   4.006   8.294  0.8128 -1.0318  0.8883
 8446SOL    HW226780   2.465   3.967   8.409  1.8324  1.6949  2.6857
 8447SOL     OW26781   2.995   2.624   9.568  0.4537 -0.2093 -0.1101
 8447SOL    HW126782   2.950   2.575   9.499  0.6329 -0.4075 -0.0881
 8447SOL    HW226783   2.960   2.587   9.649 -1.6300  1.7130 -0.0482
 8448SOL     OW26784   1.352   4.622   7.844 -0.3583 -0.5031  0.2883
 8448SOL    HW126785   1.286   4.688   7.865 -0.8284 -1.2209  1.1201
 8448SOL    HW226786   1.435   4.671   7.842 -0.9104  0.4388 -0.9523
 8449SOL     OW26787   3.318   2.718   8.164 -0.1825  0.2249 -0.4325
 8449SOL    HW126788   3.284   2.807   8.153 -0.5189  0.0940 -0.4647
 8449SOL    HW226789   3.302   2.675   8.080 -1.3821 -0.3209  0.0568
 8450SOL     OW26790   3.833   1.747   7.192 -0.7202 -0.1632 -0.6625
 8450SOL    HW126791   3.801   1.679   7.133 -0.9854  0.7836 -1.6397
 8450SOL    HW226792   3.905   1.789   7.144  0.3969 -0.6616  0.5089
 8451SOL     OW26793   2.294   1.709   7.840  0.0650 -0.2564  0.7568
 8451SOL    HW126794   2.338   1.746   7.764 -0.3144  1.8804  1.5183
 8451SOL    HW226795   2.307   1.614   7.832 -1.4591 -0.3139 -2.9049
 8452SOL     OW26796   3.743   2.933   9.014  0.5918  0.1369  0.4703
 8452SOL    HW126797   3.696   2.979   8.944  0.2219 -1.0121 -0.0718
 8452SOL    HW226798   3.716   2.976   9.094 -1.3964 -0.4442  0.1692
 8453SOL     OW26799   0.396   2.302   8.418 -0.3337  0.4499  0.2913
 8453SOL    HW126800   0.360   2.234   8.361  1.1306  0.7740 -1.1101
 8453SOL    HW226801   0.474   2.262   8.457  0.2392  1.1128 -0.1352
 8454SOL     OW26802   3.360   3.475   7.709 -0.0161  0.2258  0.1398
 8454SOL    HW126803   3.318   3.549   7.753  1.0511  0.5668  0.6033
 8454SOL    HW226804   3.329   3.398   7.757 -0.1533  0.4687  0.4468
 8455SOL     OW26805   3.035   2.892   8.647  0.1244 -0.3357 -0.1227
 8455SOL    HW126806   3.110   2.835   8.663 -1.3295 -1.9031  1.5926
 8455SOL    HW226807   3.071   2.965   8.597  2.6138 -1.4031 -0.0568
 8456SOL     OW26808   3.691   2.495   9.085  0.0979  0.4698 -0.4439
 8456SOL    HW126809   3.674   2.541   9.003  0.7974  0.4656 -0.5975
 8456SOL    HW226810   3.633   2.419   9.083  0.1162  0.4705 -0.9382
 8457SOL     OW26811   2.378   3.094  10.012  0.5437 -0.1271  0.2261
 8457SOL    HW126812   2.470   3.110  10.031  0.5748  0.1935 -0.1730
 8457SOL    HW226813   2.331   3.156  10.069  0.5450 -0.7763  0.9413
 8458SOL     OW26814   1.317   3.374   8.277 -0.0330  0.6119 -0.4995
 8458SOL    HW126815   1.282   3.418   8.200  0.5620  1.0648 -0.5186
 8458SOL    HW226816   1.408   3.402   8.281  0.6833 -1.4703 -1.1288
 8459SOL     OW26817   3.554   2.568  10.253 -0.4661 -0.4814 -0.0925
 8459SOL    HW126818   3.499   2.544  10.179  1.8471  0.8829 -2.4416
 8459SOL    HW226819   3.628   2.507  10.249 -0.8050 -1.0974  1.8397
 8460SOL     OW26820   3.014   1.394   7.657  0.4148  0.1497 -0.2260
 8460SOL    HW126821   3.035   1.450   7.583  0.1771 -0.4203 -0.7386
 8460SOL    HW226822   2.932   1.429   7.692  1.4872  1.5841  0.9742
 8461SOL     OW26823   2.744   2.217   7.275  0.4005  0.4554 -0.1443
 8461SOL    HW126824   2.691   2.207   7.196  0.3181 -0.0726 -0.0284
 8461SOL    HW226825   2.739   2.131   7.318  2.6235 -0.1465 -0.9380
 8462SOL     OW26826   3.349   2.357  10.184  0.0620 -0.4476  0.2310
 8462SOL    HW126827   3.352   2.398  10.270 -0.0565 -0.3242  0.1766
 8462SOL    HW226828   3.301   2.419  10.129 -0.1283 -0.6609  0.1509
 8463SOL     OW26829   3.724   1.362  11.504 -0.0016 -0.6955 -0.0202
 8463SOL    HW126830   3.717   1.346  11.410  0.6194  2.5252 -0.7574
 8463SOL    HW226831   3.813   1.397  11.516 -0.8385  1.2016  1.2789
 8464SOL     OW26832   3.063   3.092   7.920 -0.2573 -0.0119  0.2895
 8464SOL    HW126833   3.142   3.130   7.881  0.7035 -0.6185  1.6078
 8464SOL    HW226834   2.991   3.139   7.877  0.6164 -1.7683 -3.5066
 8465SOL     OW26835   2.425   4.943   7.722 -0.2693  0.3921 -0.0620
 8465SOL    HW126836   2.518   4.918   7.726 -0.4046  0.0792  1.6587
 8465SOL    HW226837   2.411   4.998   7.798 -1.5404  0.3221 -0.2224
 8466SOL     OW26838   2.240   3.061   8.932  0.3139 -0.1607  0.0411
 8466SOL    HW126839   2.184   3.031   8.860  0.3189  1.6930 -0.8018
 8466SOL    HW226840   2.297   3.127   8.892  1.1780  0.0053  1.4897
 8467SOL     OW26841   2.245   3.833   7.578  0.7264  0.0755 -0.0499
 8467SOL    HW126842   2.256   3.924   7.604  0.4456  1.0658 -3.0293
 8467SOL    HW226843   2.334   3.802   7.559  0.6501  0.5731 -1.3757
 8468SOL     OW26844   2.397   3.530   8.760  0.5490  0.3986  0.2469
 8468SOL    HW126845   2.426   3.601   8.817  0.6312  0.9478 -0.4641
 8468SOL    HW226846   2.324   3.567   8.711 -1.0727 -0.8072  1.6507
 8469SOL     OW26847   2.075   2.423   8.142 -0.1441 -0.2927 -0.2374
 8469SOL    HW126848   1.997   2.394   8.189 -1.4896  2.1710 -0.7963
 8469SOL    HW226849   2.102   2.347   8.090 -2.4006 -1.0665 -0.3538
 8470SOL     OW26850   3.407   2.447   9.600 -0.0222 -0.6995 -0.0103
 8470SOL    HW126851   3.398   2.484   9.513 -0.0849  2.4425  1.2059
 8470SOL    HW226852   3.501   2.447   9.617  0.0415 -1.9448 -0.2997
 8471SOL     OW26853   3.277   1.050   8.537  0.3290 -0.4851  0.4681
 8471SOL    HW126854   3.229   1.101   8.602  2.3455  0.3411  1.4032
 8471SOL    HW226855   3.265   1.098   8.455  1.1397  0.8444  1.0885
 8472SOL     OW26856   3.329   7.865   7.136 -0.5711  0.3141 -0.5869
 8472SOL    HW126857   3.308   7.812   7.213 -0.1250 -0.1145 -0.7546
 8472SOL    HW226858   3.346   7.953   7.172 -1.3004  0.3490 -0.3081
 8473SOL     OW26859   2.338   1.344   8.845  0.1158  0.6541 -0.4684
 8473SOL    HW126860   2.303   1.432   8.834 -0.6134  0.1483 -2.6459
 8473SOL    HW226861   2.423   1.346   8.799  0.5323  0.4650  0.2754
 8474SOL     OW26862   2.240   3.937   8.565 -0.1830 -0.2230  0.4438
 8474SOL    HW126863   2.268   3.872   8.500 -2.7629 -1.1127  0.1061
 8474SOL    HW226864   2.305   3.930   8.636  1.6914 -0.4739 -1.2198
 8475SOL     OW26865   3.081   4.512   8.241 -0.3340  0.1848  0.0463
 8475SOL    HW126866   3.015   4.453   8.277 -0.2834  0.8354  1.2714
 8475SOL    HW226867   3.050   4.533   8.153 -2.0246  0.8638  0.7624
 8476SOL     OW26868   3.439   0.613   8.552 -0.2316  0.2002  0.5798
 8476SOL    HW126869   3.471   0.697   8.585  2.4025  0.0933 -1.3382
 8476SOL    HW226870   3.344   0.624   8.547 -0.3767  1.6831  3.8535
 8477SOL     OW26871   2.217   3.570   7.435 -0.0938  0.2612  0.2399
 8477SOL    HW126872   2.230   3.657   7.472  0.3323  0.3753 -0.1707
 8477SOL    HW226873   2.147   3.532   7.487 -0.6258  1.0392  0.1094
 8478SOL     OW26874   2.693   4.125   7.923 -0.4244 -0.5343 -0.3435
 8478SOL    HW126875   2.712   4.078   7.842 -0.0608  0.2246 -0.7031
 8478SOL    HW226876   2.671   4.213   7.895  2.6870  0.6464  0.5193
 8479SOL     OW26877   1.906   2.409   6.429 -0.4468  0.6092  0.3354
 8479SOL    HW126878   1.811   2.424   6.428 -0.7442 -0.9376  1.3873
 8479SOL    HW226879   1.925   2.367   6.345 -0.8385  0.2126  0.4417
 8480SOL     OW26880   5.651   3.446   8.460 -0.6402  0.0116  0.0677
 8480SOL    HW126881   5.559   3.468   8.474 -0.3774  1.5940 -0.4758
 8480SOL    HW226882   5.695   3.472   8.541 -0.7802 -1.6402  0.7088
 8481SOL     OW26883   3.269   2.784   7.250 -0.2362 -0.6236  0.7081
 8481SOL    HW126884   3.223   2.856   7.294  0.6246  1.0964 -1.0539
 8481SOL    HW226885   3.360   2.796   7.274 -0.0791 -1.1084  0.3693
 8482SOL     OW26886   1.053   3.363   5.970  0.4898  0.3964  0.4799
 8482SOL    HW126887   1.054   3.370   5.875  0.3053 -1.7551  0.2622
 8482SOL    HW226888   1.060   3.453   6.001 -2.4264  1.4986 -1.5599
 8483SOL     OW26889   1.377   4.258   7.458  0.0641  0.3911 -0.1735
 8483SOL    HW126890   1.315   4.315   7.412 -0.4994 -0.5664 -0.6501
 8483SOL    HW226891   1.378   4.290   7.548  0.3120  1.5897 -0.5818
 8484SOL     OW26892   2.618   3.755   8.961 -0.0871 -0.0328  0.1394
 8484SOL    HW126893   2.706   3.759   8.925  0.5855  1.4503  1.7858
 8484SOL    HW226894   2.603   3.662   8.979  1.5447 -0.2134  0.7173
 8485SOL     OW26895   1.660   2.747  10.721 -0.1526  0.3831  0.2451
 8485SOL    HW126896   1.698   2.775  10.637 -0.3999 -0.7168 -0.2524
 8485SOL    HW226897   1.645   2.828  10.768 -0.0277  1.0295 -0.7877
 8486SOL     OW26898   2.476   2.339  11.806 -0.6369  0.3496  0.0015
 8486SOL    HW126899   2.402   2.388  11.770 -2.9190 -2.5347  0.3732
 8486SOL    HW226900   2.544   2.405  11.821 -3.2186  3.2287 -0.0443
 8487SOL     OW26901   2.852   2.721  10.502 -0.1696  0.3362  0.3464
 8487SOL    HW126902   2.808   2.641  10.529 -0.6841  0.3448 -0.4403
 8487SOL    HW226903   2.781   2.782  10.484  0.1397  0.2955 -1.1133
 8488SOL     OW26904   3.956   2.800  10.000  0.3863 -0.1367  0.8135
 8488SOL    HW126905   4.041   2.837   9.974  0.9243 -0.4218  2.0590
 8488SOL    HW226906   3.892   2.860   9.964  1.2036  1.3535  1.7311
 8489SOL     OW26907   5.467   1.991   8.444  0.3107 -0.3083  0.1238
 8489SOL    HW126908   5.417   2.072   8.456 -0.0503 -0.0149 -2.6378
 8489SOL    HW226909   5.549   2.007   8.490 -0.2764  1.0712  0.7725
 8490SOL     OW26910   1.836   4.520   9.868  0.0128  0.2113  0.3222
 8490SOL    HW126911   1.804   4.608   9.889  0.3734  0.1382  1.2206
 8490SOL    HW226912   1.917   4.511   9.919  0.3119 -0.4130 -0.2444
 8491SOL     OW26913   2.741   2.823  10.123  0.5967  0.1896 -0.2795
 8491SOL    HW126914   2.785   2.874  10.054  4.4609 -1.4403  0.6783
 8491SOL    HW226915   2.701   2.750  10.076  0.4092  0.7814 -1.0611
 8492SOL     OW26916   3.809   1.207  10.737  0.5238 -0.1496 -0.1891
 8492SOL    HW126917   3.744   1.162  10.790  1.9509 -0.0470  1.7341
 8492SOL    HW226918   3.774   1.296  10.726 -1.2529 -0.9955 -2.1467
 8493SOL     OW26919   0.842   2.637  11.487  0.6040 -0.0967  0.1735
 8493SOL    HW126920   0.772   2.701  11.498  1.9010  1.4282 -0.0388
 8493SOL    HW226921   0.834   2.580  11.564  1.0555  2.0073  1.8983
 8494SOL     OW26922   2.416   1.452   9.869  0.0070 -0.2200 -0.3433
 8494SOL    HW126923   2.348   1.472   9.932 -0.3996 -2.1852 -0.0925
 8494SOL    HW226924   2.489   1.508   9.893 -1.2985  1.5225 -0.2713
 8495SOL     OW26925   2.490   3.598  10.941 -0.0865 -0.5195 -0.1237
 8495SOL    HW126926   2.442   3.516  10.939  0.5214 -0.8689 -0.7956
 8495SOL    HW226927   2.515   3.613  10.850  0.4699  0.0154  0.1141
 8496SOL     OW26928   0.237   1.295  12.047 -0.3637 -0.2233 -0.0603
 8496SOL    HW126929   0.263   1.362  12.111  0.2284 -0.0229 -0.4998
 8496SOL    HW226930   0.166   1.336  11.998  0.0392  0.1180 -0.3697
 8497SOL     OW26931   3.635   2.311  11.047 -0.0593  0.3788  0.4511
 8497SOL    HW126932   3.567   2.378  11.057 -1.6760 -0.9559 -1.0752
 8497SOL    HW226933   3.613   2.245  11.113 -0.3704 -0.1302 -0.1498
 8498SOL     OW26934   2.181   1.054   8.629 -0.2209 -0.0808 -0.0444
 8498SOL    HW126935   2.140   1.140   8.616 -1.5593 -0.3798  1.8968
 8498SOL    HW226936   2.267   1.074   8.667 -0.4197  0.4110  0.1505
 8499SOL     OW26937   2.893   4.489  11.799  0.2377 -0.4804  0.3912
 8499SOL    HW126938   2.928   4.404  11.827 -0.3309 -0.9035 -0.1413
 8499SOL    HW226939   2.968   4.534  11.760  0.7164 -0.4320  1.3472
 8500SOL     OW26940   0.179   2.227  10.395  0.2111 -0.4272 -0.0542
 8500SOL    HW126941   0.156   2.258  10.483  0.0305 -2.9506  0.8697
 8500SOL    HW226942   0.095   2.205  10.354  0.3343  0.1889 -0.6466
 8501SOL     OW26943   2.004   3.401   7.599  0.1033 -0.6307 -0.4889
 8501SOL    HW126944   2.090   3.380   7.635 -0.1239 -1.0763 -0.1946
 8501SOL    HW226945   1.943   3.375   7.668 -0.1312  2.5674  0.6455
 8502SOL     OW26946   2.084   3.232   9.128  0.2557  0.0327  0.2907
 8502SOL    HW126947   2.149   3.296   9.099 -0.6084  0.6709 -0.3004
 8502SOL    HW226948   2.092   3.159   9.065 -0.1401  0.4709 -0.2835
 8503SOL     OW26949   1.323   3.699   9.665  0.3346  0.3592 -0.6695
 8503SOL    HW126950   1.362   3.614   9.686 -0.5941  0.1710  0.3297
 8503SOL    HW226951   1.337   3.752   9.744  0.6574  1.0614 -1.1827
 8504SOL     OW26952   3.415   1.338  11.633 -0.1819  0.0872  0.2070
 8504SOL    HW126953   3.333   1.308  11.594  0.0086 -1.4257  0.8902
 8504SOL    HW226954   3.483   1.297  11.579  0.1099  0.2395  0.4589
 8505SOL     OW26955   3.752   2.320  10.824  0.1606  0.3458  0.0549
 8505SOL    HW126956   3.764   2.230  10.795  0.1011  0.3781 -0.0724
 8505SOL    HW226957   3.728   2.313  10.916  0.8105  0.2682  0.2199
 8506SOL     OW26958   2.418   3.378   9.862  0.1816  0.2800 -0.2233
 8506SOL    HW126959   2.412   3.425   9.945  0.4375 -0.0469 -0.0195
 8506SOL    HW226960   2.509   3.386   9.836  0.2700 -0.2647 -0.0906
 8507SOL     OW26961   5.020   7.977  10.449  0.6760 -0.0703  0.1903
 8507SOL    HW126962   5.107   7.998  10.414  0.0942  0.6187 -0.8869
 8507SOL    HW226963   4.974   8.060  10.449 -0.0909 -0.4906  0.4820
 8508SOL     OW26964   4.845   2.733   8.409 -0.1817 -0.5629  0.5965
 8508SOL    HW126965   4.832   2.768   8.321 -1.7294 -0.9436  0.6432
 8508SOL    HW226966   4.857   2.811   8.464 -3.0059 -0.0356  0.6094
 8509SOL     OW26967   7.793   1.779  11.437 -0.3542 -1.0883 -0.0940
 8509SOL    HW126968   7.871   1.787  11.492 -1.0532  0.7396  0.7130
 8509SOL    HW226969   7.826   1.779  11.347  0.6107 -0.9606  0.2534
 8510SOL     OW26970   2.325   2.743  10.497 -0.0616 -0.0310 -0.3719
 8510SOL    HW126971   2.339   2.830  10.460  0.1384 -0.3969 -1.1871
 8510SOL    HW226972   2.249   2.709  10.449  0.0956 -0.4503 -0.3278
 8511SOL     OW26973   2.464   2.686  11.785 -0.3161 -0.0479  0.0149
 8511SOL    HW126974   2.553   2.706  11.756  0.6522 -3.7122 -0.0508
 8511SOL    HW226975   2.471   2.677  11.880 -0.6775  0.0069  0.0469
 8512SOL     OW26976   3.345   0.911  11.253  0.0579 -0.2662  0.0959
 8512SOL    HW126977   3.357   1.006  11.247  0.1087  0.0277  3.1605
 8512SOL    HW226978   3.406   0.876  11.188  0.1195  1.7868 -1.0427
 8513SOL     OW26979   1.990   4.423   8.175 -0.5542  0.4877 -0.0129
 8513SOL    HW126980   1.972   4.331   8.194 -0.7341  0.6795  0.7815
 8513SOL    HW226981   1.904   4.465   8.177 -0.6850  0.4126 -1.9811
 8514SOL     OW26982   3.294   2.698   9.686  0.0380 -0.2235 -0.5927
 8514SOL    HW126983   3.210   2.693   9.641 -0.4907  0.5434  0.2684
 8514SOL    HW226984   3.325   2.607   9.688 -1.4858 -0.7817  0.3713
 8515SOL     OW26985   1.994   3.333  10.988 -0.5374 -0.2954  0.1141
 8515SOL    HW126986   2.051   3.388  10.934 -0.1676 -1.0305 -0.2540
 8515SOL    HW226987   2.002   3.370  11.076  0.7327 -0.5474  0.1208
 8516SOL     OW26988   0.966   2.386  12.278  0.0189 -0.5027  0.2603
 8516SOL    HW126989   0.993   2.478  12.274 -1.2580 -0.1435 -1.3411
 8516SOL    HW226990   1.007   2.352  12.357  0.3583  1.4987  1.0024
 8517SOL     OW26991   3.210   2.050   9.952 -0.1127 -0.4747 -0.3197
 8517SOL    HW126992   3.277   2.114   9.928 -1.4091  1.4521  0.9225
 8517SOL    HW226993   3.257   1.983  10.000  1.1604  0.0115 -0.8398
 8518SOL     OW26994   2.177   3.220   8.619  0.6294  0.2731 -0.0486
 8518SOL    HW126995   2.172   3.125   8.628  1.1162  0.3345  1.0500
 8518SOL    HW226996   2.223   3.234   8.537 -0.0429 -0.4236 -0.5632
 8519SOL     OW26997   4.000   1.672  11.637  0.5059 -0.4316  0.3130
 8519SOL    HW126998   4.020   1.760  11.605 -0.9380 -0.5966 -1.1872
 8519SOL    HW226999   3.932   1.686  11.703  1.0059 -0.3526  0.8151
 8520SOL     OW27000   2.086   4.240  10.063 -0.4208  0.4159 -1.0201
 8520SOL    HW127001   2.002   4.264  10.103 -0.7120  2.8605 -2.8624
 8520SOL    HW227002   2.151   4.293  10.109  0.1422 -1.1607  0.1138
 8521SOL     OW27003   2.533   0.531   9.481  0.1506 -0.4478  1.0853
 8521SOL    HW127004   2.440   0.529   9.504 -0.3283  1.5867 -0.4309
 8521SOL    HW227005   2.534   0.535   9.386  1.8068 -0.3984  1.0831
 8522SOL     OW27006   3.004   3.513  10.859 -0.2733  0.0826  0.0325
 8522SOL    HW127007   2.958   3.455  10.920  1.6521 -0.9993  0.5213
 8522SOL    HW227008   2.935   3.544  10.800 -1.5295 -1.9965  0.2914
 8523SOL     OW27009   3.318   2.474  11.517 -0.3169 -0.1184 -0.1071
 8523SOL    HW127010   3.413   2.465  11.512 -0.4015 -0.8783 -0.5555
 8523SOL    HW227011   3.296   2.453  11.608  0.0936  1.8017  0.4803
 8524SOL     OW27012   3.069   3.011   9.401  0.2564  0.6723 -0.0009
 8524SOL    HW127013   3.027   3.062   9.470  1.3936  1.2772  0.2668
 8524SOL    HW227014   3.130   3.072   9.359  0.6230 -0.0794 -0.5898
 8525SOL     OW27015   1.493   2.541   8.935 -0.0892 -0.7394 -0.1196
 8525SOL    HW127016   1.458   2.625   8.905 -1.4158  0.0168  3.1372
 8525SOL    HW227017   1.586   2.559   8.950 -0.3207  0.1350  0.3722
 8526SOL     OW27018   1.883   2.355  10.340 -0.0859 -0.0908 -0.3204
 8526SOL    HW127019   1.800   2.404  10.341  1.4990  2.8013 -0.0890
 8526SOL    HW227020   1.881   2.304  10.421 -0.5321  2.0588  1.0992
 8527SOL     OW27021   2.840   2.715   8.094 -0.1221  0.2852  0.2969
 8527SOL    HW127022   2.855   2.804   8.126  0.3030  0.2804  0.1081
 8527SOL    HW227023   2.875   2.714   8.005  0.0191 -0.1178  0.3540
 8528SOL     OW27024   4.805   1.737  10.753 -0.0453  0.4117  0.5794
 8528SOL    HW127025   4.768   1.809  10.804 -0.2926 -0.5785  1.8663
 8528SOL    HW227026   4.740   1.667  10.761  1.1097 -0.6392  1.0864
 8529SOL     OW27027   3.275   3.047   9.842 -0.2884 -0.2139 -0.3076
 8529SOL    HW127028   3.251   2.979   9.905  0.3897  0.5879  0.8674
 8529SOL    HW227029   3.332   3.106   9.892 -0.2424  0.7941 -1.5114
 8530SOL     OW27030   4.401   2.177  10.990 -0.1727  0.1220  0.0697
 8530SOL    HW127031   4.319   2.222  10.967 -2.2921 -2.0088  2.7777
 8530SOL    HW227032   4.418   2.120  10.915 -2.4027 -0.9110  0.2552
 8531SOL     OW27033   1.921   2.585  11.491  0.4489  0.7712 -0.1638
 8531SOL    HW127034   1.840   2.637  11.500 -0.8257 -0.5809 -2.7094
 8531SOL    HW227035   1.986   2.649  11.462 -0.8538  1.2728 -2.3014
 8532SOL     OW27036   2.971   2.726  10.746  0.1898  0.0927 -0.2365
 8532SOL    HW127037   2.924   2.734  10.663 -2.3027  0.9163  1.1533
 8532SOL    HW227038   3.058   2.695  10.721  0.5243  3.0009 -3.3949
 8533SOL     OW27039   5.498   1.858  10.871  0.4079  0.4273  0.8878
 8533SOL    HW127040   5.462   1.940  10.840 -0.8655  1.0377  3.6752
 8533SOL    HW227041   5.430   1.821  10.927  0.6910 -2.8721 -0.6762
 8534SOL     OW27042   4.512   3.447  11.026  0.0755  0.2981  0.0762
 8534SOL    HW127043   4.428   3.440  10.981 -0.0055  0.5347  0.1834
 8534SOL    HW227044   4.575   3.464  10.957 -0.0356  0.5788  0.0406
 8535SOL     OW27045   2.995   2.661   9.079  0.4091  0.0012  0.0324
 8535SOL    HW127046   3.048   2.717   9.022  1.7774  1.8079  2.8632
 8535SOL    HW227047   2.908   2.702   9.078  0.1136 -0.5685 -1.4077
 8536SOL     OW27048   1.520   1.670  10.227  0.3214 -0.5766  0.0473
 8536SOL    HW127049   1.538   1.697  10.137  0.1747 -2.2229 -0.5115
 8536SOL    HW227050   1.476   1.745  10.267  1.0744  0.4637 -1.0048
 8537SOL     OW27051   1.609   3.556  11.008 -0.2602 -0.2682  0.1752
 8537SOL    HW127052   1.662   3.484  11.043 -0.6576 -0.2272  0.8965
 8537SOL    HW227053   1.520   3.537  11.040 -0.0668  1.4501  1.8685
 8538SOL     OW27054   1.724   2.952  10.533 -0.6966  0.5191  0.1491
 8538SOL    HW127055   1.793   3.007  10.570 -0.3658  0.0859  0.1882
 8538SOL    HW227056   1.742   2.951  10.439 -0.6571  0.4129  0.1584
 8539SOL     OW27057   1.618   1.740  11.641  0.3992  0.7103 -0.6301
 8539SOL    HW127058   1.592   1.830  11.621  1.6828  0.9873 -1.1690
 8539SOL    HW227059   1.559   1.686  11.588  1.5601  1.3495 -2.6723
 8540SOL     OW27060   2.086   2.538   9.180 -0.4180  0.1440  0.0350
 8540SOL    HW127061   2.056   2.458   9.137 -0.7411  0.2331  0.0961
 8540SOL    HW227062   2.006   2.582   9.210 -0.1911 -0.0242  0.9203
 8541SOL     OW27063   4.229   1.144  10.614 -0.2969 -0.0327  0.2104
 8541SOL    HW127064   4.265   1.055  10.620 -2.7034 -1.2996 -1.9346
 8541SOL    HW227065   4.275   1.185  10.542 -1.7194 -1.0066 -1.3366
 8542SOL     OW27066   2.376   3.534  10.107 -0.1587  0.0918 -0.8038
 8542SOL    HW127067   2.469   3.540  10.085 -0.1667 -2.4259 -1.8749
 8542SOL    HW227068   2.374   3.541  10.203  1.1701 -0.1363 -0.7373
 8543SOL     OW27069   2.415   2.844  10.743  0.3065  0.1848  0.1504
 8543SOL    HW127070   2.432   2.773  10.805 -2.9660  0.1681  1.2270
 8543SOL    HW227071   2.376   2.801  10.667  2.1252  0.4654 -0.9959
 8544SOL     OW27072   3.386   2.271   7.937 -0.1783 -0.2429  0.1955
 8544SOL    HW127073   3.347   2.253   7.851  0.3170 -0.6401  0.0479
 8544SOL    HW227074   3.480   2.282   7.918 -0.0475 -0.4847  0.7070
 8545SOL     OW27075   4.202   1.588  11.320 -0.0845  0.1906  0.4117
 8545SOL    HW127076   4.273   1.524  11.325 -1.4011 -1.2350  3.1269
 8545SOL    HW227077   4.156   1.567  11.239  1.6481  0.1741 -0.6141
 8546SOL     OW27078   4.252   7.806  10.739 -0.1722  0.2935  0.3483
 8546SOL    HW127079   4.347   7.798  10.726 -0.2183  1.5122 -0.9805
 8546SOL    HW227080   4.216   7.726  10.701  0.3871 -1.0029  2.3754
 8547SOL     OW27081   3.812   1.689  11.877 -0.0154 -0.0033 -0.1261
 8547SOL    HW127082   3.821   1.784  11.880 -1.5086  0.2701 -2.2503
 8547SOL    HW227083   3.727   1.674  11.836 -0.0286 -2.2707  0.5902
 8548SOL     OW27084   2.563   3.385  11.451 -0.4179  0.0201  0.7914
 8548SOL    HW127085   2.619   3.441  11.398 -0.8237 -1.5053 -1.3566
 8548SOL    HW227086   2.560   3.429  11.536  3.5252  0.4680  0.8733
 8549SOL     OW27087   5.025   3.951  10.081  0.3303  0.2803 -0.3555
 8549SOL    HW127088   4.941   3.979  10.117  1.4016  1.8310  1.0751
 8549SOL    HW227089   5.075   4.032  10.070  1.8441 -0.6446 -0.6462
 8550SOL     OW27090   3.416   3.092  10.116  0.3948 -0.3407 -0.0131
 8550SOL    HW127091   3.354   3.128  10.180  2.3599  0.5540  1.4998
 8550SOL    HW227092   3.415   3.154  10.044  0.7579  0.5721  0.7528
 8551SOL     OW27093   2.824   1.724  10.776  0.3126  0.1172  0.3551
 8551SOL    HW127094   2.795   1.634  10.787 -0.0316  0.3027  1.0088
 8551SOL    HW227095   2.917   1.717  10.752  0.3356 -0.4072  0.5878
 8552SOL     OW27096   4.170   1.448  12.447 -0.4408  0.2894 -0.0578
 8552SOL    HW127097   4.178   1.446  12.351 -0.7699 -0.1316 -0.0735
 8552SOL    HW227098   4.101   1.512  12.463 -1.3425 -0.6392 -0.1583
 8553SOL     OW27099   3.253   2.780   9.332  0.9206 -0.0441  0.1496
 8553SOL    HW127100   3.199   2.701   9.328  2.3265 -1.3033  3.2224
 8553SOL    HW227101   3.193   2.849   9.362  0.4504 -0.8179  1.0127
 8554SOL     OW27102   1.958   1.798  10.482  0.2268 -0.9908 -0.2409
 8554SOL    HW127103   2.047   1.770  10.503  0.5947  1.3443  1.8326
 8554SOL    HW227104   1.969   1.888  10.450 -1.2819 -1.2445 -1.5653
 8555SOL     OW27105   3.693   3.179   8.862  0.2441  0.5051  0.0429
 8555SOL    HW127106   3.704   3.192   8.767 -1.9248  3.6041  0.0431
 8555SOL    HW227107   3.773   3.215   8.900  0.3744  0.8885 -0.5640
 8556SOL     OW27108   2.524   1.653  11.315  0.3898 -0.6062 -0.6587
 8556SOL    HW127109   2.546   1.689  11.229 -0.7557 -0.9609 -1.1224
 8556SOL    HW227110   2.467   1.720  11.354  0.3320 -0.7670 -0.4702
 8557SOL     OW27111   3.111   3.328   9.868 -0.5997 -0.0489 -0.3556
 8557SOL    HW127112   3.099   3.418   9.836 -0.7770 -0.6764 -2.1414
 8557SOL    HW227113   3.206   3.317   9.872 -0.5405  0.6130  1.1819
 8558SOL     OW27114   2.934   2.163   9.130  0.3159 -0.1055  0.2348
 8558SOL    HW127115   3.003   2.150   9.195  0.2987 -0.6881  0.1338
 8558SOL    HW227116   2.980   2.179   9.048  0.3592  1.6205  0.5521
 8559SOL     OW27117   2.543   2.209  10.624 -0.1003 -0.1517 -0.6861
 8559SOL    HW127118   2.502   2.190  10.540  0.8517 -0.5110 -1.0872
 8559SOL    HW227119   2.637   2.210  10.605  0.3279 -2.7660  0.8395
 8560SOL     OW27120   2.629   2.941   9.763  0.6084 -0.2311  0.4114
 8560SOL    HW127121   2.606   2.859   9.719 -0.1007 -1.4361  2.7958
 8560SOL    HW227122   2.553   2.997   9.749  1.8192  0.7811 -2.7314
 8561SOL     OW27123   0.921   3.574   8.575 -0.0349  0.2940 -0.3771
 8561SOL    HW127124   0.830   3.548   8.581  0.4505 -1.6519 -0.7722
 8561SOL    HW227125   0.942   3.569   8.482  0.4884  0.6664 -0.2829
 8562SOL     OW27126   2.961   2.564  11.124  0.1669  0.3235 -0.0968
 8562SOL    HW127127   2.904   2.623  11.075  0.3217  1.3434  0.9012
 8562SOL    HW227128   3.048   2.606  11.118 -0.0108  1.0700  1.9204
 8563SOL     OW27129   3.705   1.302  10.429  0.3935  0.0368 -0.0125
 8563SOL    HW127130   3.681   1.215  10.399  0.0399  0.4358 -0.9578
 8563SOL    HW227131   3.756   1.288  10.508 -0.8726 -0.9492  0.6546
 8564SOL     OW27132   1.734   0.686  10.574 -0.2079 -0.2399 -0.2946
 8564SOL    HW127133   1.661   0.720  10.625 -0.9367 -0.4850 -1.1557
 8564SOL    HW227134   1.789   0.763  10.556 -0.3023 -0.0397  0.2588
 8565SOL     OW27135   3.451   4.001  10.361 -0.5079 -0.1409 -0.4015
 8565SOL    HW127136   3.479   3.949  10.285 -0.0955 -0.2566 -0.1766
 8565SOL    HW227137   3.510   4.076  10.361 -0.6329 -0.0438 -0.3067
 8566SOL     OW27138   3.927   1.606  11.166  0.2792  0.4761 -0.6173
 8566SOL    HW127139   3.993   1.567  11.108  0.4761 -0.2136  0.0561
 8566SOL    HW227140   3.844   1.570  11.135  0.5127 -0.9629  0.3531
 8567SOL     OW27141   4.656   2.321  10.619 -0.1071  0.2685  0.1063
 8567SOL    HW127142   4.722   2.254  10.639 -0.1985  0.1297 -0.0489
 8567SOL    HW227143   4.575   2.272  10.612 -0.3151  0.5052  0.7931
 8568SOL     OW27144   2.647   2.245   9.272  0.1120 -0.1601  1.0143
 8568SOL    HW127145   2.612   2.158   9.254 -1.1746  0.3245  1.1265
 8568SOL    HW227146   2.594   2.278   9.345 -1.0018  1.6379 -0.5213
 8569SOL     OW27147   3.509   3.016   9.457 -0.1081  0.2718 -0.2582
 8569SOL    HW127148   3.476   2.978   9.539 -0.6329  1.5985  0.1624
 8569SOL    HW227149   3.588   2.966   9.438 -0.7142 -0.9715  0.3221
 8570SOL     OW27150   2.797   2.681  10.965 -0.0806 -0.4266  0.1616
 8570SOL    HW127151   2.733   2.636  10.910 -0.2054  0.7110 -0.6506
 8570SOL    HW227152   2.863   2.713  10.903 -0.1893  0.8256  0.6739
 8571SOL     OW27153   4.189   3.355   0.862  0.0381 -0.4488  0.3778
 8571SOL    HW127154   4.194   3.260   0.875  0.7780 -0.4739 -0.0275
 8571SOL    HW227155   4.117   3.368   0.801  0.9599 -0.9057 -0.8677
 8572SOL     OW27156   1.908   3.141  10.648  1.1040 -0.1317  0.5327
 8572SOL    HW127157   1.852   3.219  10.649  0.8901 -0.2885  1.0050
 8572SOL    HW227158   1.993   3.173  10.617  1.1345  0.3745  1.1061
 8573SOL     OW27159   0.950   3.025  11.788 -0.3385 -0.1083  0.3264
 8573SOL    HW127160   1.031   3.070  11.763 -0.1294  0.2711  1.6148
 8573SOL    HW227161   0.955   2.941  11.743  0.7050 -0.0303  0.2669
 8574SOL     OW27162   4.309   1.323  11.582 -0.1984  0.0390  0.0283
 8574SOL    HW127163   4.283   1.232  11.565 -2.4893  0.8348 -1.1055
 8574SOL    HW227164   4.331   1.358  11.496  0.4562  0.6495  0.4338
 8575SOL     OW27165   2.685   3.159  10.339  0.2300 -0.6891 -0.5046
 8575SOL    HW127166   2.652   3.186  10.254  0.7320  0.3708 -0.3817
 8575SOL    HW227167   2.739   3.232  10.368 -0.0053 -0.9957  0.7663
 8576SOL     OW27168   2.247   2.629  12.176  0.2678  0.1822  0.1521
 8576SOL    HW127169   2.191   2.595  12.245  1.4785 -1.0698  0.5453
 8576SOL    HW227170   2.220   2.581  12.097  1.9909 -1.8162  0.7092
 8577SOL     OW27171   3.624   3.255  10.461  0.1466  0.6443  0.0676
 8577SOL    HW127172   3.561   3.324  10.484  0.1360  0.5378  0.3670
 8577SOL    HW227173   3.620   3.250  10.366  0.3854  1.2813  0.0163
 8578SOL     OW27174   1.348   2.394   6.919  0.0660 -0.0622  0.3605
 8578SOL    HW127175   1.308   2.311   6.892 -1.6766  0.9017 -0.1784
 8578SOL    HW227176   1.368   2.381   7.012  0.1133 -1.1913  0.2083
 8579SOL     OW27177   0.288   1.540  11.704 -0.1818  0.1818 -0.1169
 8579SOL    HW127178   0.381   1.517  11.698 -0.7383 -2.6882  0.6960
 8579SOL    HW227179   0.277   1.572  11.793  0.2762  2.2580 -0.7421
 8580SOL     OW27180   2.111   2.705   9.748 -0.0450 -0.0686 -0.0104
 8580SOL    HW127181   2.197   2.727   9.784  0.3459 -1.0071 -0.3360
 8580SOL    HW227182   2.130   2.667   9.662 -0.7783 -0.3813 -0.0429
 8581SOL     OW27183   1.425   2.966  10.428  0.2995 -0.1838 -0.1982
 8581SOL    HW127184   1.472   2.893  10.466  0.2788  0.5585  1.3111
 8581SOL    HW227185   1.491   3.033  10.414 -0.2539  1.0136  2.3035
 8582SOL     OW27186   2.180   2.633  10.900 -0.1785  0.2458 -0.0474
 8582SOL    HW127187   2.192   2.728  10.891 -0.7391  0.4572  1.2691
 8582SOL    HW227188   2.269   2.599  10.911 -0.1262  1.0431  2.8970
 8583SOL     OW27189   3.274   2.680  10.616  0.0773 -0.7281 -0.0012
 8583SOL    HW127190   3.309   2.682  10.705 -1.9839 -1.1599  0.8768
 8583SOL    HW227191   3.304   2.761  10.577  0.2317 -0.0582  1.4287
 8584SOL     OW27192   1.199   3.291  10.929  0.1284  0.1937 -0.4943
 8584SOL    HW127193   1.114   3.334  10.921  0.2190  0.4601 -0.0353
 8584SOL    HW227194   1.180   3.206  10.969  0.0574  0.1730 -0.5712
 8585SOL     OW27195   4.256   2.396  10.687 -0.1283 -0.3496  0.1373
 8585SOL    HW127196   4.261   2.452  10.764  2.2362 -0.4421  0.1365
 8585SOL    HW227197   4.331   2.423  10.633  0.6923 -2.9776 -0.2008
 8586SOL     OW27198   3.913   3.334  10.253 -0.3508 -0.3017  0.3355
 8586SOL    HW127199   3.822   3.313  10.230 -0.5564  2.4068 -1.7361
 8586SOL    HW227200   3.966   3.287  10.189 -0.4962  0.8868 -0.6682
 8587SOL     OW27201   1.829   0.326  11.847 -0.3859  0.0719 -0.0305
 8587SOL    HW127202   1.877   0.260  11.797  0.1172  1.2682 -1.1763
 8587SOL    HW227203   1.763   0.360  11.786 -0.2592  1.0375  0.3561
 8588SOL     OW27204   3.979   2.598  11.673 -0.0672 -0.4212  0.6248
 8588SOL    HW127205   3.955   2.589  11.580  0.1434 -0.3346  0.5600
 8588SOL    HW227206   4.048   2.664  11.673 -0.8433  0.4046  0.9734
 8589SOL     OW27207   3.554   1.648   0.259 -0.0757 -0.5466  0.5884
 8589SOL    HW127208   3.494   1.578   0.235  0.5111 -0.5030 -1.0946
 8589SOL    HW227209   3.499   1.726   0.263 -0.0955 -0.4119 -1.4443
 8590SOL     OW27210   0.319   2.116  11.150  0.3112 -0.3234 -0.4481
 8590SOL    HW127211   0.324   2.194  11.205  1.8729  0.3456 -1.4463
 8590SOL    HW227212   0.342   2.044  11.208 -2.6144 -0.3376  0.8662
 8591SOL     OW27213   3.885   1.775  10.859  0.3829 -0.5323 -0.3654
 8591SOL    HW127214   3.937   1.763  10.938 -0.2796  0.2167  0.1996
 8591SOL    HW227215   3.947   1.763  10.787  0.8735 -1.8379  0.2313
 8592SOL     OW27216   1.758   2.566   8.940  0.8450 -0.2097 -0.7228
 8592SOL    HW127217   1.772   2.487   8.888  1.5736 -0.0747 -0.7461
 8592SOL    HW227218   1.835   2.621   8.921  0.4837  0.3860 -0.4964
 8593SOL     OW27219   4.825   2.512   8.753 -0.0715 -0.0812 -0.4378
 8593SOL    HW127220   4.776   2.518   8.835  0.5162 -0.0679 -0.0860
 8593SOL    HW227221   4.834   2.418   8.737  0.0281 -0.0848 -0.3586
 8594SOL     OW27222   2.402   2.162   9.990  0.0547 -0.7041 -1.1899
 8594SOL    HW127223   2.442   2.160   9.904  1.2548  1.8951 -0.7807
 8594SOL    HW227224   2.395   2.255  10.012 -0.6857 -1.2544  1.3002
 8595SOL     OW27225   2.370   3.077   9.756  0.4552 -0.0188 -0.3426
 8595SOL    HW127226   2.327   3.147   9.707  1.1287  1.3251  0.9027
 8595SOL    HW227227   2.357   3.101   9.848 -0.8519 -2.5131  0.1862
 8596SOL     OW27228   4.155   0.559  10.224  0.5362  0.0032  0.1873
 8596SOL    HW127229   4.183   0.485  10.278 -0.3593 -0.4914  0.0003
 8596SOL    HW227230   4.224   0.569  10.159  2.2924  1.4147  2.1190
 8597SOL     OW27231   3.152   3.763  10.519  0.0035 -0.5149  0.1727
 8597SOL    HW127232   3.160   3.782  10.425  1.2015 -1.4217  0.0635
 8597SOL    HW227233   3.238   3.783  10.555  0.1767 -2.0362  0.6962
 8598SOL     OW27234   1.155   2.744  10.350 -0.2613  0.1746  0.6448
 8598SOL    HW127235   1.121   2.718  10.265  1.7762 -0.2940 -0.0875
 8598SOL    HW227236   1.137   2.669  10.407 -0.3820 -0.0925  0.2590
 8599SOL     OW27237   3.625   2.072   9.992  0.3927 -1.0970  0.4076
 8599SOL    HW127238   3.544   2.061  10.043  0.6561 -1.6415  0.7189
 8599SOL    HW227239   3.667   2.149  10.030 -0.6152  0.0144 -0.6266
 8600SOL     OW27240   4.331   0.772  10.857  0.6344 -0.1654 -0.5365
 8600SOL    HW127241   4.375   0.778  10.942  1.1357 -0.2360 -0.7850
 8600SOL    HW227242   4.293   0.684  10.856 -0.4526  0.2854  0.1221
 8601SOL     OW27243   3.161   3.810   1.165 -0.6318 -0.2759  0.3233
 8601SOL    HW127244   3.193   3.747   1.230  1.7865  0.9024  0.3950
 8601SOL    HW227245   3.225   3.805   1.094 -1.4918  0.7178 -0.5447
 8602SOL     OW27246   4.129   4.052  10.215 -0.6310  0.0144  0.1864
 8602SOL    HW127247   4.189   3.978  10.200 -0.8336 -0.2219  0.5302
 8602SOL    HW227248   4.045   4.011  10.236 -0.5757  0.3317  1.0834
 8603SOL     OW27249   1.658   2.974  10.911 -0.2927 -0.3253  0.8445
 8603SOL    HW127250   1.685   3.017  10.992 -0.2573  1.6552 -0.1499
 8603SOL    HW227251   1.575   3.016  10.888  0.7646  0.7945 -1.2486
 8604SOL     OW27252   2.923   1.845   9.414  0.2495  0.0268 -0.0282
 8604SOL    HW127253   2.976   1.765   9.415 -1.9785 -1.6152  2.5556
 8604SOL    HW227254   2.833   1.813   9.417 -0.7915  2.3202  5.7343
 8605SOL     OW27255   3.938   2.697   9.012 -0.1621 -0.1047  0.3779
 8605SOL    HW127256   3.918   2.637   8.940 -1.1840 -0.4586  0.9315
 8605SOL    HW227257   3.852   2.732   9.039 -0.0042 -1.0769  2.3502
 8606SOL     OW27258   3.483   2.843   9.974 -0.1414 -0.2203  0.4664
 8606SOL    HW127259   3.475   2.924  10.024  0.8251 -0.2093  0.6157
 8606SOL    HW227260   3.448   2.775  10.032  0.5881 -0.1477  1.0073
 8607SOL     OW27261   2.117   3.319   9.665 -0.1416  0.2920  0.4040
 8607SOL    HW127262   2.168   3.393   9.698  1.4743 -0.3498 -0.5468
 8607SOL    HW227263   2.116   3.332   9.570  1.7255 -1.7914  0.0234
 8608SOL     OW27264   4.407   1.482  10.633  0.4733 -0.3727 -0.5400
 8608SOL    HW127265   4.394   1.434  10.551 -0.8323 -0.3929 -0.3439
 8608SOL    HW227266   4.334   1.545  10.636  0.4760 -0.4040  0.6218
 8609SOL     OW27267   3.196   3.253  11.132 -0.0480 -0.4829 -0.3312
 8609SOL    HW127268   3.121   3.196  11.118  2.0935 -4.0360  1.3267
 8609SOL    HW227269   3.163   3.323  11.188 -2.6473 -0.3125 -1.9087
 8610SOL     OW27270   3.630   2.665  11.631 -0.5827 -0.2401  0.2886
 8610SOL    HW127271   3.563   2.728  11.606 -0.6680  0.0912  1.3209
 8610SOL    HW227272   3.631   2.601  11.559  0.9983  2.0412 -1.8860
 8611SOL     OW27273   2.892   3.417   8.311  0.2254  0.0222 -0.0090
 8611SOL    HW127274   2.822   3.350   8.312  1.2898 -1.2216 -2.1548
 8611SOL    HW227275   2.876   3.468   8.390 -2.1317 -1.2365  0.4456
 8612SOL     OW27276   1.201   4.289  10.433  0.1089  0.3948 -0.2702
 8612SOL    HW127277   1.157   4.312  10.515 -1.9383  1.7980 -1.6802
 8612SOL    HW227278   1.148   4.219  10.396  2.4720 -2.1036  0.6999
 8613SOL     OW27279   1.545   3.434  11.349 -0.2781  0.2766 -0.4511
 8613SOL    HW127280   1.528   3.359  11.406  0.4376  0.7680  0.4513
 8613SOL    HW227281   1.502   3.413  11.267  1.3423 -1.9154 -0.8169
 8614SOL     OW27282   1.936   2.325   9.509  0.4314  0.1620 -0.5065
 8614SOL    HW127283   1.888   2.377   9.573  0.8672  0.7392 -0.6433
 8614SOL    HW227284   2.019   2.306   9.551  0.5558  0.1890 -0.7378
 8615SOL     OW27285   4.128   2.152  10.673 -0.0533  0.0098 -0.0029
 8615SOL    HW127286   4.174   2.236  10.675  0.7114 -0.4174  0.5013
 8615SOL    HW227287   4.128   2.127  10.580  1.5917 -0.4366  0.0790
 8616SOL     OW27288   3.415   2.391  10.767 -0.0717  0.0007 -0.4958
 8616SOL    HW127289   3.489   2.331  10.775  0.1429  0.3812  0.5006
 8616SOL    HW227290   3.454   2.478  10.774 -0.8407  0.2041  2.8248
 8617SOL     OW27291   2.582   2.862  11.525  0.3900 -0.0425  0.0551
 8617SOL    HW127292   2.541   2.916  11.458  0.9395  0.0045 -0.2507
 8617SOL    HW227293   2.548   2.774  11.510  0.0134  0.0896  0.1262
 8618SOL     OW27294   2.881   2.823   9.418 -0.0326 -0.3073  0.7204
 8618SOL    HW127295   2.964   2.871   9.418 -0.6268  0.8353  2.5832
 8618SOL    HW227296   2.892   2.757   9.487 -0.7705  0.1107  1.2558
 8619SOL     OW27297   3.779   1.874   9.545  0.0298  0.1376  0.3885
 8619SOL    HW127298   3.719   1.921   9.602 -1.1336  0.0013 -0.6619
 8619SOL    HW227299   3.842   1.940   9.516 -1.5451  1.1141 -1.0226
 8620SOL     OW27300   1.268   3.208  11.237 -0.5025 -0.6200  0.0228
 8620SOL    HW127301   1.332   3.250  11.179 -2.0465  1.9960  0.0680
 8620SOL    HW227302   1.222   3.145  11.181  1.3754 -1.8406 -0.2394
 8621SOL     OW27303   2.595   3.568  12.221  0.1505 -0.2542  0.2674
 8621SOL    HW127304   2.500   3.565  12.208  0.0409  0.0952  0.9388
 8621SOL    HW227305   2.622   3.476  12.212 -0.3008 -0.4062  0.3730
 8622SOL     OW27306   1.581   5.687  10.102 -0.0317 -0.4055 -0.0171
 8622SOL    HW127307   1.656   5.632  10.079  0.3843  0.9403 -2.1777
 8622SOL    HW227308   1.506   5.643  10.061  0.0723 -0.1265 -0.5090
 8623SOL     OW27309   2.853   2.678   7.370  0.4361  0.1348 -0.5155
 8623SOL    HW127310   2.927   2.663   7.310  0.7121 -0.9479  0.0718
 8623SOL    HW227311   2.780   2.631   7.331  0.9977 -1.8934  0.7154
 8624SOL     OW27312   0.818   3.382   8.952 -0.0061  0.0953  0.4121
 8624SOL    HW127313   0.840   3.294   8.921 -0.2207  0.7825 -1.9092
 8624SOL    HW227314   0.902   3.423   8.969  0.4799  0.9614 -3.2658
 8625SOL     OW27315   1.668   3.092   9.232 -0.1259  0.0788  0.2838
 8625SOL    HW127316   1.709   3.160   9.285  1.7585  0.1583 -1.1490
 8625SOL    HW227317   1.669   3.127   9.143  0.9407 -1.7759 -0.5077
 8626SOL     OW27318   4.088   2.000   7.268 -0.3176 -0.2841  0.1009
 8626SOL    HW127319   4.072   1.927   7.208 -0.0621 -0.8263  0.6697
 8626SOL    HW227320   4.103   2.076   7.212  0.4295 -0.8875 -0.5271
 8627SOL     OW27321   4.069   2.782  12.107  0.0566 -0.3800  0.4731
 8627SOL    HW127322   4.012   2.793  12.031  1.1813  0.0124 -0.3416
 8627SOL    HW227323   4.098   2.871  12.128  0.3851 -0.5755  0.8580
 8628SOL     OW27324   3.569   2.816  11.231  0.1518  0.6264 -0.5890
 8628SOL    HW127325   3.560   2.864  11.149 -0.6844  1.0974 -0.2415
 8628SOL    HW227326   3.647   2.762  11.219 -0.4552  0.0198 -2.0116
 8629SOL     OW27327   2.383   3.453  10.667  0.5553 -0.2039 -0.2299
 8629SOL    HW127328   2.453   3.518  10.660  0.5114 -0.3141 -2.9051
 8629SOL    HW227329   2.426   3.369  10.649  0.1648 -0.6064  0.6643
 8630SOL     OW27330   1.258   1.464  11.055  0.1628 -0.1040 -0.1475
 8630SOL    HW127331   1.294   1.454  11.143 -0.2739  2.1209  0.3321
 8630SOL    HW227332   1.185   1.402  11.052 -0.5416  0.5958  1.4912
 8631SOL     OW27333   3.647   1.981  11.991  0.0121  0.0110  0.0054
 8631SOL    HW127334   3.686   2.046  12.049  1.0703 -1.8980  1.5230
 8631SOL    HW227335   3.566   1.955  12.035  1.7365 -2.8467  1.8220
 8632SOL     OW27336   3.456   1.981   9.268 -0.2617 -0.6364  0.0387
 8632SOL    HW127337   3.472   2.073   9.287 -0.8410 -0.5722  0.2414
 8632SOL    HW227338   3.412   1.981   9.183  1.2115 -0.8446 -0.7675
 8633SOL     OW27339   2.825   1.752  11.566 -0.6868  0.6203  0.1573
 8633SOL    HW127340   2.776   1.832  11.581 -1.2803  0.2845  0.0476
 8633SOL    HW227341   2.914   1.781  11.546 -0.6228  1.1885  1.2615
 8634SOL     OW27342   3.684   1.899  11.083 -0.0086 -0.1721  0.3401
 8634SOL    HW127343   3.622   1.828  11.100 -0.0016 -0.4201 -0.6253
 8634SOL    HW227344   3.751   1.888  11.151  0.4754 -1.6641 -0.3427
 8635SOL     OW27345   3.420   3.065  11.126 -0.3725 -0.2701 -0.0014
 8635SOL    HW127346   3.393   2.991  11.071 -1.7642  0.3221 -0.1495
 8635SOL    HW227347   3.346   3.125  11.124  0.4070  0.7569  0.7989
 8636SOL     OW27348   5.193   0.226  10.788  0.2143  0.1193 -0.2797
 8636SOL    HW127349   5.133   0.151  10.791  1.4692 -0.9124  1.9978
 8636SOL    HW227350   5.167   0.280  10.863  0.9288  0.6176 -0.3855
 8637SOL     OW27351   2.379   1.980  10.200 -0.5611 -0.0376  0.2860
 8637SOL    HW127352   2.399   2.047  10.134 -0.7580 -0.4460 -0.1958
 8637SOL    HW227353   2.388   2.025  10.284 -0.3564  0.5031 -0.0236
 8638SOL     OW27354   0.941   4.278   9.878 -0.1435  0.3438 -0.3498
 8638SOL    HW127355   0.985   4.331   9.811  2.1878  0.2425  0.9662
 8638SOL    HW227356   0.920   4.341   9.947  0.9290 -0.0819  0.4046
 8639SOL     OW27357   3.816   1.685  10.416  0.0981  0.0412 -0.4657
 8639SOL    HW127358   3.746   1.670  10.479  0.0926  0.1188 -0.4527
 8639SOL    HW227359   3.797   1.771  10.379  0.7024  0.4671  0.2049
 8640SOL     OW27360   2.801   1.663   8.645  1.4527 -0.1511 -0.0858
 8640SOL    HW127361   2.768   1.748   8.673  0.0423 -0.3227 -1.1323
 8640SOL    HW227362   2.870   1.642   8.708  0.2725  0.7085  1.5535
 8641SOL     OW27363   0.073   3.482  10.386 -0.3709  0.0349 -0.1793
 8641SOL    HW127364   0.053   3.566  10.344 -0.3517 -0.1586 -0.5860
 8641SOL    HW227365   0.168   3.476  10.384 -0.4039 -0.8425 -1.9049
 8642SOL     OW27366   0.768   4.456  11.379 -0.4272  0.1885  0.3479
 8642SOL    HW127367   0.753   4.370  11.420  0.4982 -1.1708 -1.9530
 8642SOL    HW227368   0.850   4.487  11.418 -0.1525 -0.5305  0.3664
 8643SOL     OW27369   2.067   3.089  10.861 -0.0928 -0.2907 -0.3110
 8643SOL    HW127370   2.037   3.172  10.899  1.9372  0.1093  0.5155
 8643SOL    HW227371   2.000   3.068  10.796 -0.7495  1.9223 -0.4438
 8644SOL     OW27372   2.196   3.492  10.844  0.2302 -0.3730  0.4367
 8644SOL    HW127373   2.255   3.467  10.773 -0.7976 -0.8921 -0.2698
 8644SOL    HW227374   2.141   3.561  10.806 -1.5828 -1.9438  0.0535
 8645SOL     OW27375   3.042   1.582   9.388  0.2914  0.9673  0.1379
 8645SOL    HW127376   3.094   1.537   9.322 -0.4598  0.4765 -0.1325
 8645SOL    HW227377   2.990   1.513   9.430 -2.2612  1.7152 -1.5405
 8646SOL     OW27378   4.897   3.586  11.031  0.1641  0.1736  0.3826
 8646SOL    HW127379   4.847   3.569  11.111  0.6903 -0.6225  0.5545
 8646SOL    HW227380   4.971   3.526  11.036  0.3371  0.2902 -0.5854
 8647SOL     OW27381   2.030   4.376  10.586  0.3743  0.1915  0.4312
 8647SOL    HW127382   2.091   4.448  10.570  3.5278 -2.0913  1.2488
 8647SOL    HW227383   2.007   4.385  10.679 -0.4787  0.9482  0.1655
 8648SOL     OW27384   1.418   2.355   9.731 -0.2965  0.1422  0.1485
 8648SOL    HW127385   1.474   2.378   9.658  2.8283 -0.8584  2.0455
 8648SOL    HW227386   1.385   2.439   9.764  0.1749  0.7829 -0.9611
 8649SOL     OW27387   3.508   0.516  10.999 -0.3304 -0.2053  0.1514
 8649SOL    HW127388   3.588   0.475  11.032 -0.1254 -0.5014 -0.7026
 8649SOL    HW227389   3.438   0.455  11.023 -0.2841 -0.0185  0.7667
 8650SOL     OW27390   2.992   1.945   8.464  0.0668  0.2088 -0.1404
 8650SOL    HW127391   2.970   1.852   8.452  0.0860  0.1933 -0.0570
 8650SOL    HW227392   3.041   1.968   8.386  1.1898 -0.1908  0.4248
 8651SOL     OW27393   3.192   2.831  11.444 -0.1941 -0.4195 -0.1243
 8651SOL    HW127394   3.163   2.918  11.471 -0.8426 -0.4470 -0.7213
 8651SOL    HW227395   3.117   2.774  11.461  0.8242 -1.2230  1.9888
 8652SOL     OW27396   1.472   2.361  11.543 -0.5005 -0.2676 -0.0657
 8652SOL    HW127397   1.396   2.307  11.518  0.5185 -0.8028 -2.2020
 8652SOL    HW227398   1.438   2.450  11.544 -1.6407 -0.6799  1.1322
 8653SOL     OW27399   2.418   2.347  10.293  0.1162 -0.3229  0.7275
 8653SOL    HW127400   2.450   2.395  10.216  0.0270  0.1870  1.0081
 8653SOL    HW227401   2.493   2.295  10.321  0.0432 -0.7962  0.0779
 8654SOL     OW27402   1.485   2.129  10.135 -0.9018  0.2737 -0.3833
 8654SOL    HW127403   1.458   2.171  10.217 -1.8908  0.7317 -0.9217
 8654SOL    HW227404   1.580   2.142  10.131 -0.9063  0.6203  0.4787
 8655SOL     OW27405   3.321   3.937   9.900  0.4768 -0.3163  0.0772
 8655SOL    HW127406   3.328   3.956   9.806  0.9653 -0.3243  0.1097
 8655SOL    HW227407   3.296   3.845   9.903 -1.1381  0.0954 -0.0660
 8656SOL     OW27408   2.439   1.737  10.654  0.4923  0.0749 -0.3646
 8656SOL    HW127409   2.503   1.693  10.598  0.1618  0.6428 -1.2029
 8656SOL    HW227410   2.482   1.819  10.680  0.8539 -0.4324  0.6595
 8657SOL     OW27411   1.658   4.684  10.712 -0.2638  0.5087  0.4855
 8657SOL    HW127412   1.734   4.741  10.704  0.8154 -0.6399  2.1087
 8657SOL    HW227413   1.660   4.630  10.633  2.7168 -1.9040  2.0106
 8658SOL     OW27414   2.598   3.036  10.708  0.2275  0.2630  0.4278
 8658SOL    HW127415   2.652   2.989  10.771  0.7635 -1.4992 -1.2394
 8658SOL    HW227416   2.517   2.985  10.703  1.2481 -1.2923 -2.2259
 8659SOL     OW27417   1.851   1.626  11.708 -0.4325 -0.3377 -0.3199
 8659SOL    HW127418   1.772   1.666  11.673  0.0619  1.4002  0.4605
 8659SOL    HW227419   1.922   1.685  11.682  0.0357  0.8477  3.0653
 8660SOL     OW27420   4.133   3.675  11.597  0.5669 -0.8495  0.4126
 8660SOL    HW127421   4.081   3.639  11.525  0.5401  0.8203 -0.4567
 8660SOL    HW227422   4.088   3.646  11.676  0.1270 -2.0376 -0.2491
 8661SOL     OW27423   3.165   1.335  11.548  0.3273 -0.1396 -0.7380
 8661SOL    HW127424   3.151   1.385  11.468 -2.5208  0.5817  0.0819
 8661SOL    HW227425   3.083   1.287  11.561  1.4515 -1.8209  0.7084
 8662SOL     OW27426   4.417   2.391   0.385  0.5325  0.1194  0.0631
 8662SOL    HW127427   4.449   2.457   0.324 -1.8314  1.0051 -0.3189
 8662SOL    HW227428   4.486   2.383   0.451  1.1916  2.4775 -0.2718
 8663SOL     OW27429   3.375   2.738  10.857  0.7753  0.0919 -0.6555
 8663SOL    HW127430   3.329   2.821  10.849  0.2735 -0.2965 -2.4937
 8663SOL    HW227431   3.464   2.761  10.881  0.4018  1.0942 -0.2242
 8664SOL     OW27432   4.106   1.786   8.762 -0.0089  0.0482 -0.5336
 8664SOL    HW127433   4.099   1.825   8.849 -0.5419  0.7202 -0.8771
 8664SOL    HW227434   4.125   1.859   8.703  0.0996 -0.3639 -1.0203
 8665SOL     OW27435   1.256   3.904  11.035  0.2611  0.4831 -0.0065
 8665SOL    HW127436   1.242   3.993  11.003 -0.9681 -0.1267 -1.2943
 8665SOL    HW227437   1.185   3.890  11.098 -0.9636 -0.3374 -1.5221
 8666SOL     OW27438   4.045   4.364  11.130  0.0838 -0.1815 -0.2061
 8666SOL    HW127439   4.111   4.331  11.191 -0.7459 -0.0747  0.7992
 8666SOL    HW227440   4.023   4.451  11.164 -0.7925 -0.3477 -0.3188
 8667SOL     OW27441   4.546   2.166  11.770  0.7128  0.0145  0.6628
 8667SOL    HW127442   4.540   2.100  11.701  2.4306  1.3555 -0.8847
 8667SOL    HW227443   4.485   2.136  11.837 -0.9037 -1.4703 -1.3274
 8668SOL     OW27444   3.704   3.480  10.093  0.3767  0.0834 -0.1212
 8668SOL    HW127445   3.644   3.545  10.129 -0.9117 -1.7456  1.2530
 8668SOL    HW227446   3.686   3.480   9.999 -0.5961  0.7320  0.0522
 8669SOL     OW27447   1.290   1.976  11.301 -0.1974  0.2220  0.0857
 8669SOL    HW127448   1.255   2.054  11.259 -1.1124  0.2402  0.8519
 8669SOL    HW227449   1.269   1.904  11.241  0.2664  0.4934 -0.4118
 8670SOL     OW27450   1.402   2.223  10.377  0.4324  0.5832 -0.1131
 8670SOL    HW127451   1.447   2.230  10.461 -1.7644 -0.3078  1.2396
 8670SOL    HW227452   1.375   2.312  10.356  0.6730  0.7582  0.3245
 8671SOL     OW27453   1.802   4.741  10.417  0.0017 -0.1366 -0.1871
 8671SOL    HW127454   1.738   4.786  10.362 -0.9852 -0.1770  0.8891
 8671SOL    HW227455   1.816   4.801  10.490  1.8989  0.2767 -0.8342
 8672SOL     OW27456   4.508   1.946  11.581  0.1487 -0.3448  0.8361
 8672SOL    HW127457   4.579   1.896  11.541  0.3355  1.4645 -1.3432
 8672SOL    HW227458   4.428   1.908  11.544  0.1896 -0.2209  0.6167
 8673SOL     OW27459   2.224   1.438  11.293 -0.3115 -0.3808  0.2852
 8673SOL    HW127460   2.243   1.493  11.368 -1.2441 -0.5488  0.6612
 8673SOL    HW227461   2.266   1.354  11.312  0.1247 -0.1725  0.2459
 8674SOL     OW27462   2.206   4.013   9.582 -0.0233  0.9333  0.2558
 8674SOL    HW127463   2.113   4.032   9.596 -0.5625 -1.4722  0.3483
 8674SOL    HW227464   2.244   4.012   9.670  0.2078  2.3343  0.1878
 8675SOL     OW27465   1.574   2.042  11.061 -0.0135  0.3425 -0.2394
 8675SOL    HW127466   1.489   2.033  11.017  0.5722 -0.0237 -1.3245
 8675SOL    HW227467   1.569   2.127  11.104 -1.3741 -0.1697  0.7131
 8676SOL     OW27468   7.735   3.142  12.440  0.1239 -0.3300  0.2025
 8676SOL    HW127469   7.761   3.213  12.381  1.4944 -1.3120 -0.4327
 8676SOL    HW227470   7.714   3.069  12.381  0.1516 -0.9046  0.8916
 8677SOL     OW27471   4.685   2.669  10.656 -0.5853 -0.0148 -0.3814
 8677SOL    HW127472   4.726   2.585  10.636 -0.8158  0.1480 -1.6902
 8677SOL    HW227473   4.653   2.700  10.571 -1.1741  1.0407  0.2047
 8678SOL     OW27474   2.354   2.126  10.444  0.1386 -0.1485  0.8836
 8678SOL    HW127475   2.261   2.107  10.452  0.1629 -0.5689  0.2280
 8678SOL    HW227476   2.358   2.216  10.410 -0.1510 -1.3562 -2.7754
 8679SOL     OW27477   4.770   1.417  10.389 -0.4466 -0.1601  0.3847
 8679SOL    HW127478   4.714   1.379  10.322  0.6567  1.1274 -1.3238
 8679SOL    HW227479   4.816   1.342  10.427 -0.6516 -0.8523 -0.7032
 8680SOL     OW27480   2.666   2.501  10.730 -0.1662  0.0126  0.4520
 8680SOL    HW127481   2.636   2.491  10.640  2.0811  1.2650 -0.4992
 8680SOL    HW227482   2.715   2.422  10.749  1.6794  0.8959 -0.4394
 8681SOL     OW27483   4.549   1.376  10.237 -0.4880  0.2867 -0.6485
 8681SOL    HW127484   4.517   1.332  10.158 -0.7077 -0.2425 -0.2633
 8681SOL    HW227485   4.572   1.464  10.207 -1.2999  0.3364 -1.1479
 8682SOL     OW27486   3.350   1.745  10.060 -0.1568  0.1928  0.0824
 8682SOL    HW127487   3.269   1.788  10.085 -0.5357 -0.0105 -0.7648
 8682SOL    HW227488   3.326   1.688   9.987  0.7032 -0.0386 -0.0364
 8683SOL     OW27489   5.488   2.160   0.354 -0.5345 -0.2150 -0.4186
 8683SOL    HW127490   5.518   2.239   0.307 -0.2852  0.2149  0.4467
 8683SOL    HW227491   5.431   2.194   0.423  1.5880 -0.5515  1.6003
 8684SOL     OW27492   1.876   2.240  10.587  0.4641  0.1117 -0.0025
 8684SOL    HW127493   1.797   2.207  10.630  0.8870 -1.3329 -0.2803
 8684SOL    HW227494   1.918   2.295  10.653  0.0387 -0.3971  0.7083
 8685SOL     OW27495   2.619   2.678   9.942  0.0739 -0.4418 -0.4422
 8685SOL    HW127496   2.565   2.756   9.931  1.0085  0.0868 -1.5466
 8685SOL    HW227497   2.612   2.632   9.858  0.4599 -0.9198 -0.2146
 8686SOL     OW27498   2.044   2.477  10.710  0.3527 -0.3804  0.2281
 8686SOL    HW127499   2.115   2.477  10.646  0.2299 -2.6110 -0.0094
 8686SOL    HW227500   2.077   2.529  10.783  1.4990  0.1372 -0.6243
 8687SOL     OW27501   3.155   3.072  12.425  0.2263  0.4710 -0.0921
 8687SOL    HW127502   3.088   3.067  12.492 -0.2748  2.8252 -0.3165
 8687SOL    HW227503   3.126   3.012  12.357  0.4522 -1.5162  1.4892
 8688SOL     OW27504   2.487   2.357  10.985  0.3620 -0.0451 -0.3043
 8688SOL    HW127505   2.567   2.375  10.935 -0.5535  1.0912 -1.4206
 8688SOL    HW227506   2.421   2.337  10.918 -0.1995 -1.4716  0.6220
 8689SOL     OW27507   0.438   3.261  12.359  0.0316  0.4414 -0.2344
 8689SOL    HW127508   0.462   3.190  12.300 -1.0417 -1.4541  1.4848
 8689SOL    HW227509   0.519   3.283  12.404  0.2505 -0.1633 -0.3168
 8690SOL     OW27510   2.010   2.283   0.334 -0.0745  0.3338  0.1178
 8690SOL    HW127511   2.081   2.256   0.392  0.1702  2.9331  1.1328
 8690SOL    HW227512   2.043   2.360   0.289 -1.1829 -0.1951 -1.7071
 8691SOL     OW27513   1.659   4.044   0.478 -0.0990 -0.1257  0.3922
 8691SOL    HW127514   1.569   4.063   0.504 -0.5938 -0.7525 -0.8331
 8691SOL    HW227515   1.701   4.013   0.559 -0.5055  1.6923  1.3604
 8692SOL     OW27516   4.356   3.848   1.025  0.0266 -0.0047 -0.0958
 8692SOL    HW127517   4.319   3.863   1.112 -0.4240  0.3038 -0.3357
 8692SOL    HW227518   4.317   3.917   0.971  1.4376  0.7356 -0.2169
 8693SOL     OW27519   2.775   3.217   0.548  0.0550  0.0931  0.2618
 8693SOL    HW127520   2.685   3.222   0.581  0.0292  1.4155  0.0319
 8693SOL    HW227521   2.827   3.268   0.610  0.5434 -0.1073  0.0255
 8694SOL     OW27522   2.227   3.569   1.577  0.3698  0.0865  0.0096
 8694SOL    HW127523   2.150   3.625   1.575  0.7553  0.6078 -1.0226
 8694SOL    HW227524   2.238   3.546   1.670  0.9692  2.8090  0.7099
 8695SOL     OW27525   2.000   2.861  11.670  0.2344  0.5700  0.5925
 8695SOL    HW127526   2.035   2.937  11.624 -0.6490  2.6935  3.1533
 8695SOL    HW227527   2.059   2.847  11.744  1.4672 -2.5630 -0.8242
 8696SOL     OW27528   2.328   2.003   0.910  0.6142  0.2455  0.0092
 8696SOL    HW127529   2.387   1.933   0.882  0.4654  0.2667 -0.3753
 8696SOL    HW227530   2.266   2.012   0.837 -0.8888 -0.8934  1.0813
 8697SOL     OW27531   3.222   4.911   0.034 -0.7466  0.3023  0.1301
 8697SOL    HW127532   3.304   4.942   0.073 -0.7353  0.8475 -0.3014
 8697SOL    HW227533   3.230   4.934  -0.059 -1.1431 -0.1694 -0.0246
 8698SOL     OW27534   1.561   2.916  11.234 -0.0240 -0.8913 -0.2401
 8698SOL    HW127535   1.512   2.940  11.312  1.6763 -0.1824  0.6657
 8698SOL    HW227536   1.648   2.953  11.248  0.8018 -2.1337 -1.7495
 8699SOL     OW27537   2.123   4.935   0.381  0.2653  0.3440 -0.6065
 8699SOL    HW127538   2.147   4.843   0.365  0.1426 -0.3254  2.4157
 8699SOL    HW227539   2.150   4.981   0.302 -0.0369 -2.3379 -2.3939
 8700SOL     OW27540   3.045   3.220  11.985  0.2293 -0.4121  0.4293
 8700SOL    HW127541   3.008   3.140  12.024 -1.2187  0.8724  1.8348
 8700SOL    HW227542   3.076   3.271  12.060  1.1701  0.3435 -0.4523
 8701SOL     OW27543   1.225   2.266  11.446  0.0416 -0.3080  0.3178
 8701SOL    HW127544   1.157   2.262  11.379 -0.4771  0.1171  0.8151
 8701SOL    HW227545   1.238   2.174  11.471  1.1587 -0.6235 -1.2530
 8702SOL     OW27546   2.318   3.583  12.296 -0.0703  0.4630  0.7568
 8702SOL    HW127547   2.311   3.678  12.311  1.1612  0.9643 -1.3697
 8702SOL    HW227548   2.235   3.560  12.253  0.2319  0.9322 -0.1206
 8703SOL     OW27549   1.930   2.744  10.197  0.1059  0.3973 -0.0670
 8703SOL    HW127550   1.927   2.760  10.103  1.0186  0.0969 -0.1488
 8703SOL    HW227551   1.861   2.800  10.233 -0.6348  0.0806 -0.9652
 8704SOL     OW27552   4.242   2.261  11.585  0.0116  0.2983 -0.4107
 8704SOL    HW127553   4.267   2.352  11.602  0.4458 -0.2083  1.9588
 8704SOL    HW227554   4.324   2.213  11.587 -0.3799 -0.3663 -0.0770
 8705SOL     OW27555   3.218   3.088   0.239 -0.0939  0.2779 -0.1421
 8705SOL    HW127556   3.263   3.123   0.316 -1.7127  1.4031  0.3294
 8705SOL    HW227557   3.274   3.112   0.166 -0.6767  3.1969  0.2465
 8706SOL     OW27558   0.668   2.267   1.019  0.3258  0.6608  0.3118
 8706SOL    HW127559   0.598   2.226   0.968 -0.4110  0.1210  1.7233
 8706SOL    HW227560   0.711   2.325   0.956 -0.6326  0.1261 -0.8932
 8707SOL     OW27561   1.935   3.996   0.009  0.1956  0.0944 -0.5271
 8707SOL    HW127562   1.900   3.914   0.042  0.5155  0.3615  0.5086
 8707SOL    HW227563   2.026   3.997   0.038  0.5576  0.2340 -1.6299
 8708SOL     OW27564   1.846   2.114   0.992  0.0492 -0.3652  0.4855
 8708SOL    HW127565   1.799   2.140   1.071  2.2707  1.5195  1.3218
 8708SOL    HW227566   1.859   2.195   0.944  2.4567 -0.7114  0.3939
 8709SOL     OW27567   2.264   1.535  11.536  0.2959 -0.2575 -1.1115
 8709SOL    HW127568   2.298   1.608  11.587  1.2613 -0.5426 -1.3258
 8709SOL    HW227569   2.272   1.460  11.595 -1.9137  0.0043 -0.4095
 8710SOL     OW27570   3.489   1.703  11.085 -0.5821 -0.3053  0.4235
 8710SOL    HW127571   3.495   1.636  11.154  1.9213  0.0040  0.6238
 8710SOL    HW227572   3.435   1.663  11.017 -1.3762 -1.4428  1.6720
 8711SOL     OW27573   2.999   2.294  11.026  0.2134 -0.2291  0.6662
 8711SOL    HW127574   2.999   2.386  11.053  0.7406 -0.0949  0.2228
 8711SOL    HW227575   3.091   2.272  11.012  0.0862 -0.8011  0.6834
 8712SOL     OW27576   3.800   3.442   1.100  0.3879 -0.0356  0.6273
 8712SOL    HW127577   3.743   3.483   1.165  0.7582 -0.2553  1.0896
 8712SOL    HW227578   3.854   3.381   1.149  0.4948 -0.3947  0.0765
 8713SOL     OW27579   0.973   4.089  10.408 -0.7661 -0.2156  0.2758
 8713SOL    HW127580   0.933   4.154  10.351  1.8920  0.5028 -0.9297
 8713SOL    HW227581   0.976   4.009  10.354 -2.1822 -0.7920  1.0208
 8714SOL     OW27582   2.477   3.533   0.673 -0.1526 -0.1547 -0.5188
 8714SOL    HW127583   2.402   3.573   0.716 -0.1796 -1.0785  0.3084
 8714SOL    HW227584   2.501   3.596   0.604 -0.7330  0.8603  0.1803
 8715SOL     OW27585   4.532   3.219  11.162  0.4841  0.6371  0.1845
 8715SOL    HW127586   4.581   3.228  11.243  1.3050 -1.4960 -0.0108
 8715SOL    HW227587   4.531   3.307  11.125  2.9732  1.0483  0.8993
 8716SOL     OW27588   3.949   2.232  11.159 -0.3839  0.3168  0.2882
 8716SOL    HW127589   3.869   2.224  11.212 -0.8638  1.8460 -0.1391
 8716SOL    HW227590   4.003   2.295  11.207  0.2559 -0.1463  0.1886
 8717SOL     OW27591   0.444   3.404   0.151  0.2884 -0.3125 -0.5191
 8717SOL    HW127592   0.415   3.473   0.091  0.5752 -1.2986 -1.8219
 8717SOL    HW227593   0.362   3.366   0.184  0.0975 -0.8154 -1.5317
 8718SOL     OW27594   4.655   2.138  11.299 -0.0828 -0.2432  0.5576
 8718SOL    HW127595   4.607   2.191  11.363  0.7201  0.5786  0.4993
 8718SOL    HW227596   4.587   2.097  11.247 -0.7364  0.1451  1.0835
 8719SOL     OW27597   2.254   1.467   0.595 -0.9429  0.8978 -0.2523
 8719SOL    HW127598   2.253   1.431   0.684  1.6344  0.4956 -0.2975
 8719SOL    HW227599   2.270   1.391   0.538 -2.7746  1.1179 -1.1219
 8720SOL     OW27600   3.630   1.809  10.803 -0.0819  0.2073  0.1705
 8720SOL    HW127601   3.710   1.776  10.844 -0.1268 -0.4540 -0.2635
 8720SOL    HW227602   3.588   1.860  10.872 -0.2089 -0.9797  1.0165
 8721SOL     OW27603   2.757   0.637   0.095  0.4258 -0.3595 -0.1895
 8721SOL    HW127604   2.825   0.577   0.064  0.0236 -1.0115  0.1529
 8721SOL    HW227605   2.757   0.625   0.190  0.9937  0.9038 -0.0158
 8722SOL     OW27606   0.731   4.136  12.020  0.4894 -0.2671 -0.2202
 8722SOL    HW127607   0.682   4.202  12.069  0.9866  0.2610 -0.4222
 8722SOL    HW227608   0.698   4.053  12.052 -0.4376  0.0779 -0.2443
 8723SOL     OW27609   1.464   3.597  10.268  0.5994 -0.0861 -0.2400
 8723SOL    HW127610   1.470   3.597  10.364  2.7080 -1.4546 -0.3014
 8723SOL    HW227611   1.392   3.657  10.248 -0.2050 -0.1393  2.2058
 8724SOL     OW27612   4.504   1.731   0.121 -0.0962 -0.3550 -0.2542
 8724SOL    HW127613   4.572   1.671   0.151 -0.3183 -0.3948  0.1650
 8724SOL    HW227614   4.430   1.716   0.179 -0.2288  0.1745 -0.2796
 8725SOL     OW27615   1.605   3.186   0.895 -0.3100 -0.2968 -0.8336
 8725SOL    HW127616   1.574   3.246   0.827 -1.1549  0.4300  0.1627
 8725SOL    HW227617   1.563   3.103   0.875  0.4769 -0.4501 -1.9411
 8726SOL     OW27618   2.812   2.205  10.570  0.1746 -0.0513 -0.0902
 8726SOL    HW127619   2.847   2.120  10.595 -1.3373 -1.0091 -1.0640
 8726SOL    HW227620   2.872   2.237  10.503  1.3218  0.1546  0.9955
 8727SOL     OW27621   4.189   0.509  10.849 -0.1457 -0.0206 -0.2705
 8727SOL    HW127622   4.168   0.420  10.820 -1.5743 -0.4039  1.7158
 8727SOL    HW227623   4.267   0.499  10.904 -0.4261 -0.0964  0.1193
 8728SOL     OW27624   4.333   3.108  10.961  0.0195  0.1651  0.2988
 8728SOL    HW127625   4.381   3.143  11.036 -1.0565  0.9251  0.6512
 8728SOL    HW227626   4.393   3.044  10.922  0.6232 -0.1981  1.7586
 8729SOL     OW27627   3.572   3.310   0.581 -0.5681 -0.1724 -0.3206
 8729SOL    HW127628   3.635   3.376   0.610 -0.9713 -0.1927  0.6402
 8729SOL    HW227629   3.613   3.226   0.604 -1.5020 -0.1572  1.5687
 8730SOL     OW27630   2.683   1.586  12.304  0.1916 -0.2508 -0.0685
 8730SOL    HW127631   2.770   1.617  12.330  0.1977  1.7348 -2.1551
 8730SOL    HW227632   2.623   1.631  12.364  0.4603  0.5395 -0.3812
 8731SOL     OW27633   2.830   4.104   0.454 -0.0309 -0.1610  0.1258
 8731SOL    HW127634   2.864   4.170   0.393 -3.1179  0.8730 -0.6539
 8731SOL    HW227635   2.781   4.044   0.399 -1.0629 -0.4709  1.3458
 8732SOL     OW27636   3.383   4.236  10.568 -0.7620 -0.5530  0.5751
 8732SOL    HW127637   3.465   4.190  10.586 -1.2846 -1.4856  0.6467
 8732SOL    HW227638   3.405   4.296  10.496  0.1901 -0.1360  1.1903
 8733SOL     OW27639   3.401   2.335  11.763 -0.5060  0.0374 -0.1108
 8733SOL    HW127640   3.494   2.352  11.754 -0.5527  0.0934 -0.5355
 8733SOL    HW227641   3.389   2.246  11.731 -0.3509 -0.6014  1.5559
 8734SOL     OW27642   0.698   3.634  11.539  0.1277  0.4149  0.0927
 8734SOL    HW127643   0.710   3.691  11.615 -1.8030  1.3884 -0.2558
 8734SOL    HW227644   0.650   3.559  11.573 -3.0157  1.9866 -0.4495
 8735SOL     OW27645   2.149   1.417  10.807 -0.1115  0.2001 -0.4799
 8735SOL    HW127646   2.199   1.487  10.849  1.0218 -0.0039 -1.4414
 8735SOL    HW227647   2.170   1.339  10.858 -1.2343  0.4952  0.4822
 8736SOL     OW27648   2.188   1.827   0.168 -0.0374 -0.0807  0.0103
 8736SOL    HW127649   2.202   1.733   0.173  2.4711  0.1818 -0.9175
 8736SOL    HW227650   2.188   1.847   0.074 -3.0588  0.5846  0.0532
 8737SOL     OW27651   1.270   2.165  11.776 -0.0229  0.1448  0.2964
 8737SOL    HW127652   1.182   2.131  11.791 -0.0515  0.2025  0.2601
 8737SOL    HW227653   1.309   2.105  11.713  0.0267  0.0164  0.4493
 8738SOL     OW27654   2.271   3.459  11.483 -0.0730  0.0298  0.5642
 8738SOL    HW127655   2.299   3.520  11.415  0.0040  0.3767  0.9033
 8738SOL    HW227656   2.331   3.475  11.556  1.3439 -1.9608 -0.0979
 8739SOL     OW27657   0.249   1.909   0.280 -0.6494 -0.2289 -0.2508
 8739SOL    HW127658   0.176   1.961   0.247 -0.0044  0.8756 -0.0008
 8739SOL    HW227659   0.211   1.825   0.303 -1.6975  0.0795 -0.8037
 8740SOL     OW27660   2.134   7.710  11.278  0.0816  0.5014  0.0206
 8740SOL    HW127661   2.071   7.640  11.261 -0.0904  0.6127  0.2077
 8740SOL    HW227662   2.108   7.781  11.220 -0.0564  0.6034  0.2068
 8741SOL     OW27663   2.046   3.853   9.077  0.7369  0.3354  0.3508
 8741SOL    HW127664   2.040   3.803   8.996  0.5462  1.1390 -0.1445
 8741SOL    HW227665   1.959   3.845   9.117  0.4038  1.0582 -0.2114
 8742SOL     OW27666   1.626   3.411   0.239 -0.6847  0.1370  0.3774
 8742SOL    HW127667   1.680   3.464   0.180 -0.5646  0.6507  0.9472
 8742SOL    HW227668   1.654   3.321   0.222 -1.1995  0.1953 -0.9119
 8743SOL     OW27669   0.653   3.864  10.911  0.1940  0.5542 -0.5117
 8743SOL    HW127670   0.618   3.788  10.864 -0.5426 -0.3289  1.3303
 8743SOL    HW227671   0.615   3.940  10.867 -1.3172 -0.2750 -0.7140
 8744SOL     OW27672   2.594   1.652  10.964  0.0935  0.3404  0.1103
 8744SOL    HW127673   2.609   1.690  10.877  0.9461  0.4440  0.2919
 8744SOL    HW227674   2.522   1.591  10.951 -0.6045  1.2408 -0.4175
 8745SOL     OW27675   3.233   1.469  12.391  0.2647 -0.3478 -0.6206
 8745SOL    HW127676   3.274   1.501  12.310  0.4427 -2.0147 -1.2105
 8745SOL    HW227677   3.164   1.410  12.361 -0.3631 -0.1679  0.4398
 8746SOL     OW27678   1.835   1.962  11.256  0.2751 -0.3497  0.5127
 8746SOL    HW127679   1.755   1.927  11.295 -0.8793  0.4620 -1.0514
 8746SOL    HW227680   1.823   2.057  11.258  0.6852 -0.2625 -0.7758
 8747SOL     OW27681   4.382   0.913  11.711  0.6101 -0.0120  0.4251
 8747SOL    HW127682   4.460   0.945  11.755  0.9489 -1.8111  1.2492
 8747SOL    HW227683   4.374   0.822  11.741 -1.8945  0.1651  0.5021
 8748SOL     OW27684   3.023   2.772  12.499 -0.1201  0.4423 -0.4130
 8748SOL    HW127685   3.014   2.814  12.584 -0.4637  1.6618 -1.0383
 8748SOL    HW227686   2.967   2.694  12.506 -0.4511  0.7341  0.3484
 8749SOL     OW27687   3.008   2.625  11.475  0.2581 -0.1786  0.6389
 8749SOL    HW127688   3.070   2.554  11.492 -0.4989 -1.0525 -0.0830
 8749SOL    HW227689   2.938   2.583  11.425 -0.8906  0.7871  1.3919
 8750SOL     OW27690   2.865   1.847   9.945 -1.0421 -0.7808 -0.1643
 8750SOL    HW127691   2.820   1.927   9.972  0.8059  0.3785 -0.2913
 8750SOL    HW227692   2.898   1.867   9.857  1.2804 -0.7843  0.6157
 8751SOL     OW27693   4.411   1.381  11.298 -0.0227  0.3520  0.6306
 8751SOL    HW127694   4.505   1.385  11.316 -0.0291 -0.6288  0.9360
 8751SOL    HW227695   4.398   1.297  11.254 -0.4883  1.3207 -1.1798
 8752SOL     OW27696   3.884   0.684   0.533 -0.0091  0.2088 -0.0464
 8752SOL    HW127697   3.795   0.647   0.532 -0.5587  1.4657 -0.1628
 8752SOL    HW227698   3.871   0.778   0.515  1.2419  0.6154  1.0256
 8753SOL     OW27699   3.613   2.211  11.398  0.3847  0.1224 -0.8152
 8753SOL    HW127700   3.575   2.197  11.312 -1.8907  0.2342  0.0985
 8753SOL    HW227701   3.590   2.133  11.448  0.9608  0.4157 -0.0689
 8754SOL     OW27702   2.259   1.786  11.150  0.4609  0.4552 -0.1956
 8754SOL    HW127703   2.168   1.756  11.153  1.7267 -4.0060  0.9617
 8754SOL    HW227704   2.283   1.799  11.242  1.6339 -0.9235 -0.2761
 8755SOL     OW27705   1.920   3.836  10.593  0.1180 -0.0025  0.0426
 8755SOL    HW127706   1.995   3.832  10.535 -0.0259 -0.4223 -0.1144
 8755SOL    HW227707   1.937   3.770  10.660 -0.7502 -1.0719 -0.7636
 8756SOL     OW27708   1.798   1.421   1.593  0.0939  0.1126 -0.6028
 8756SOL    HW127709   1.820   1.331   1.617 -0.2606 -0.2443 -1.5667
 8756SOL    HW227710   1.727   1.446   1.653  0.0261 -0.3328 -0.4975
 8757SOL     OW27711   1.775   2.735   8.436  0.1163  0.1544 -0.1449
 8757SOL    HW127712   1.802   2.826   8.431 -0.5232  0.2912 -1.5794
 8757SOL    HW227713   1.724   2.729   8.517 -3.2597  2.0744 -1.8921
 8758SOL     OW27714   2.674   3.125  11.580 -0.5110  0.1084 -0.1538
 8758SOL    HW127715   2.637   3.038  11.563 -0.4901  0.3982 -1.8536
 8758SOL    HW227716   2.645   3.178  11.506 -0.4950  1.5612  0.8436
 8759SOL     OW27717   1.868   2.657  12.116 -0.6074 -0.3733  0.9454
 8759SOL    HW127718   1.779   2.682  12.140 -1.1728 -1.0127 -0.3743
 8759SOL    HW227719   1.875   2.680  12.023  1.1928  1.2361  1.4051
 8760SOL     OW27720   1.598   3.935  11.341  0.1091  0.4891  0.6514
 8760SOL    HW127721   1.590   3.893  11.255 -0.5793 -0.6613  1.2640
 8760SOL    HW227722   1.666   4.001  11.328 -0.1136  0.4689 -0.8268
 8761SOL     OW27723   1.609   2.372  12.029  0.0182 -0.4575  0.3294
 8761SOL    HW127724   1.671   2.423  11.977 -0.3487  1.0983  1.3857
 8761SOL    HW227725   1.556   2.436  12.075 -1.5106 -1.7715  0.5058
 8762SOL     OW27726   1.910   3.705  11.107  0.3715 -0.1182 -0.0115
 8762SOL    HW127727   1.850   3.659  11.166 -0.5349 -1.0103 -1.5552
 8762SOL    HW227728   1.855   3.736  11.035  1.7599 -1.2360 -1.6476
 8763SOL     OW27729   4.551   4.165   0.289  0.6728 -0.4337  0.2387
 8763SOL    HW127730   4.616   4.171   0.359  0.0868 -1.2149  0.8642
 8763SOL    HW227731   4.581   4.229   0.224  0.9294  0.7142  1.4362
 8764SOL     OW27732   1.967   1.845  11.931 -0.6056 -0.0863  0.1346
 8764SOL    HW127733   1.977   1.882  11.844 -0.0448  1.2198  0.7261
 8764SOL    HW227734   1.893   1.892  11.970  0.1524  0.4999  0.9164
 8765SOL     OW27735   2.821   2.769  11.698  0.3057  0.4353  0.7453
 8765SOL    HW127736   2.750   2.807  11.646  0.9247 -0.0877 -0.5359
 8765SOL    HW227737   2.871   2.717  11.635  0.4399 -1.1722  2.1095
 8766SOL     OW27738   1.961   2.816  12.320  0.3770 -0.4669  0.4557
 8766SOL    HW127739   1.880   2.811  12.370 -0.0583  1.8100  0.1029
 8766SOL    HW227740   1.940   2.780  12.235 -0.2921  0.1326  0.3605
 8767SOL     OW27741   3.356   3.196  11.971 -0.1145  0.3259  0.7651
 8767SOL    HW127742   3.261   3.195  11.956  0.1660 -0.5136 -1.2147
 8767SOL    HW227743   3.388   3.268  11.918  0.4311  0.1717  0.8850
 8768SOL     OW27744   4.874   1.378   0.660  0.1636  0.1599  0.2536
 8768SOL    HW127745   4.873   1.426   0.577 -1.0906  0.5419  0.4627
 8768SOL    HW227746   4.805   1.420   0.712  0.2615 -0.7217  1.1125
 8769SOL     OW27747   1.868   1.874  12.394 -0.3976 -0.2907  0.0495
 8769SOL    HW127748   1.909   1.789  12.380 -1.2575 -0.6514 -0.3315
 8769SOL    HW227749   1.903   1.930  12.325  1.9987  0.3691  1.6813
 8770SOL     OW27750   1.802   1.602   2.047  0.0380 -0.1770  0.5049
 8770SOL    HW127751   1.816   1.526   2.104  0.6886 -0.4068  0.0541
 8770SOL    HW227752   1.865   1.667   2.078 -0.1801  0.0030  0.5739
 8771SOL     OW27753   1.930   2.998   0.778 -0.1576 -1.0336  0.4241
 8771SOL    HW127754   1.892   2.910   0.774 -0.4413 -0.9264  0.7087
 8771SOL    HW227755   1.904   3.031   0.864 -0.0873 -0.6528  0.3012
 8772SOL     OW27756   2.837   1.485   0.107  0.0611  0.2992 -0.0195
 8772SOL    HW127757   2.763   1.426   0.121  0.7237 -0.6232 -0.2627
 8772SOL    HW227758   2.856   1.521   0.194 -1.6503  1.7890 -0.2245
 8773SOL     OW27759   4.030   2.699   0.955 -0.0431  0.8246  0.0162
 8773SOL    HW127760   4.114   2.692   0.910  0.0424 -1.2851  0.3799
 8773SOL    HW227761   3.966   2.662   0.894 -0.3160  0.2611  0.6220
 8774SOL     OW27762   1.048   1.348  10.732 -0.3077 -0.3207  0.1410
 8774SOL    HW127763   1.080   1.438  10.722 -1.4638  0.1268  0.4149
 8774SOL    HW227764   1.123   1.300  10.768  0.0223  0.7409  0.9059
 8775SOL     OW27765   2.910   1.696  12.392  0.1482 -0.1657  0.1496
 8775SOL    HW127766   2.981   1.653  12.344  0.8015  1.8902 -0.8602
 8775SOL    HW227767   2.903   1.647  12.473  3.3905  0.0611  0.7274
 8776SOL     OW27768   3.405   0.727   0.072  0.0884  0.9038  0.1158
 8776SOL    HW127769   3.379   0.635   0.068 -0.0947  0.9546  0.1538
 8776SOL    HW227770   3.473   0.729   0.139  0.3093  0.7443 -0.0977
 8777SOL     OW27771   3.054   3.734  11.618 -0.0571 -0.1148  0.1006
 8777SOL    HW127772   2.976   3.684  11.641 -0.5167 -0.5943 -2.2017
 8777SOL    HW227773   3.126   3.689  11.662 -0.6207 -2.0731 -0.8738
 8778SOL     OW27774   2.387   2.379   9.586 -0.1865 -0.1650  0.6556
 8778SOL    HW127775   2.335   2.318   9.640  0.2202 -0.4859  0.6898
 8778SOL    HW227776   2.461   2.403   9.642 -0.8437  1.1307  1.0051
 8779SOL     OW27777   2.003   3.394   0.283  0.1407 -0.1587  0.2404
 8779SOL    HW127778   1.930   3.450   0.312  0.9977  0.6176  0.9819
 8779SOL    HW227779   2.069   3.403   0.352  2.5746  2.2672 -2.1291
 8780SOL     OW27780   2.677   1.933   0.599 -0.4061 -0.2931 -0.2191
 8780SOL    HW127781   2.665   2.009   0.541 -2.0465  0.3027  0.8477
 8780SOL    HW227782   2.766   1.904   0.581  0.1013  1.5872 -1.0249
 8781SOL     OW27783   7.595   3.226  11.461  0.0689 -0.7184 -0.1294
 8781SOL    HW127784   7.585   3.131  11.460 -1.9315 -0.6793  3.2054
 8781SOL    HW227785   7.673   3.242  11.513  1.4831 -0.4703 -2.2115
 8782SOL     OW27786   3.352   5.942  10.638  0.4197 -0.1611 -0.2256
 8782SOL    HW127787   3.350   5.944  10.734  0.9099  0.1278 -0.2196
 8782SOL    HW227788   3.272   5.988  10.612 -0.8022 -2.0168  0.0346
 8783SOL     OW27789   2.355   3.173  11.610  0.1592  0.6185  0.5373
 8783SOL    HW127790   2.354   3.159  11.705 -0.1106 -1.1140  0.2968
 8783SOL    HW227791   2.413   3.249  11.598  0.3933  0.7106  2.0533
 8784SOL     OW27792   3.429   2.405   1.415 -0.3228  0.6428  0.1792
 8784SOL    HW127793   3.413   2.499   1.428 -1.5420  0.2579  1.7585
 8784SOL    HW227794   3.457   2.373   1.501  2.6219 -0.0288 -0.9130
 8785SOL     OW27795   1.512   2.087  12.095 -0.2720 -0.5251 -0.1038
 8785SOL    HW127796   1.572   2.103  12.168 -0.1560 -1.3133 -0.0227
 8785SOL    HW227797   1.486   1.995  12.104  0.2627 -0.8283 -1.4455
 8786SOL     OW27798   0.764   2.631   0.187  0.1395 -0.3766  0.4362
 8786SOL    HW127799   0.726   2.579   0.117 -0.8575 -0.2609  0.8605
 8786SOL    HW227800   0.856   2.607   0.189  0.0712 -0.7526 -0.5733
 8787SOL     OW27801   2.007   2.009  12.210 -0.0427 -0.0096 -0.2624
 8787SOL    HW127802   2.030   1.986  12.120 -0.4762 -0.9851 -0.1349
 8787SOL    HW227803   2.074   2.073  12.236  0.6084 -0.3818 -0.9765
 8788SOL     OW27804   1.892   2.679  11.831 -0.1864 -0.1445  0.1155
 8788SOL    HW127805   1.922   2.745  11.769  0.7143 -0.6770 -0.0365
 8788SOL    HW227806   1.808   2.649  11.796  0.2113 -0.2954 -0.7353
 8789SOL     OW27807   1.321   3.524  11.775 -0.5100 -0.1318 -0.0410
 8789SOL    HW127808   1.253   3.484  11.828 -1.0826 -2.7531 -2.5068
 8789SOL    HW227809   1.295   3.507  11.684  3.1968 -1.0119 -1.1292
 8790SOL     OW27810   1.060   3.820   9.552 -0.5465  0.4529  0.3234
 8790SOL    HW127811   1.117   3.873   9.496 -1.2756  1.7172  0.7635
 8790SOL    HW227812   1.098   3.828   9.639  0.4036 -1.2657  0.1173
 8791SOL     OW27813   2.456   3.298  12.216 -0.5870 -0.1288 -0.0352
 8791SOL    HW127814   2.524   3.243  12.178  0.0219  0.5369  0.0591
 8791SOL    HW227815   2.388   3.301  12.150  0.0643  0.2748 -0.7089
 8792SOL     OW27816   3.599   0.988  11.406 -0.2716 -0.0151 -0.7403
 8792SOL    HW127817   3.571   0.900  11.431  0.0220  0.1200  0.0869
 8792SOL    HW227818   3.689   0.978  11.375  0.2162  0.1668  0.5549
 8793SOL     OW27819   3.464   3.282  12.221  0.2971 -0.6656 -0.1875
 8793SOL    HW127820   3.455   3.219  12.150  0.3622 -0.4857 -0.3556
 8793SOL    HW227821   3.502   3.359  12.180 -0.4763 -0.2508 -0.1231
 8794SOL     OW27822   1.281   2.441  11.093 -0.9281 -0.6489 -0.2268
 8794SOL    HW127823   1.260   2.464  11.003 -1.8736  0.3308  0.2322
 8794SOL    HW227824   1.284   2.524  11.140 -4.2823 -1.2776  1.4419
 8795SOL     OW27825   0.784   3.492   0.108  0.2027  0.2631  0.5709
 8795SOL    HW127826   0.716   3.557   0.125 -2.1672 -1.4920 -1.5627
 8795SOL    HW227827   0.782   3.434   0.183  0.0266  0.7719  0.9623
 8796SOL     OW27828   2.334   1.240   0.475 -0.1103 -0.5369 -0.1519
 8796SOL    HW127829   2.331   1.144   0.478  0.9458 -0.6074 -0.7792
 8796SOL    HW227830   2.425   1.260   0.454 -0.1339  0.6322  0.7689
 8797SOL     OW27831   2.299   2.943   0.626 -0.2494  0.0479 -0.3337
 8797SOL    HW127832   2.329   2.925   0.537 -0.3152  0.0025 -0.3468
 8797SOL    HW227833   2.296   3.039   0.631  0.0618  0.0567 -0.2761
 8798SOL     OW27834   3.137   3.087  11.512 -0.0166  0.1038 -0.0143
 8798SOL    HW127835   3.216   3.129  11.479  0.5877  0.9906  2.3742
 8798SOL    HW227836   3.135   3.109  11.605 -2.4164 -0.9533  0.2591
 8799SOL     OW27837   4.150   2.275  10.960 -0.1923 -0.7693  0.6895
 8799SOL    HW127838   4.064   2.261  10.998  0.3371 -0.4933  2.0456
 8799SOL    HW227839   4.133   2.302  10.870 -1.5372 -0.2005  1.0980
 8800SOL     OW27840   3.769   3.607   2.579  0.1733 -0.5078 -0.0872
 8800SOL    HW127841   3.847   3.556   2.556  1.0661  0.9965 -0.5309
 8800SOL    HW227842   3.799   3.668   2.647 -0.6812 -0.1088 -0.0562
 8801SOL     OW27843   0.758   1.626   1.151 -0.2012  0.0019  0.8642
 8801SOL    HW127844   0.705   1.621   1.072 -0.9626 -1.2417  1.4210
 8801SOL    HW227845   0.834   1.570   1.133  0.3884  0.8936  0.4866
 8802SOL     OW27846   3.159   4.402  11.077  0.2161 -0.4097  0.2624
 8802SOL    HW127847   3.092   4.450  11.125  0.6171 -0.9413  1.3949
 8802SOL    HW227848   3.202   4.348  11.144  1.6648 -0.1945 -0.4623
 8803SOL     OW27849   1.527   1.673   0.616  0.4487  0.2142  0.4419
 8803SOL    HW127850   1.550   1.760   0.648  2.0733 -0.8158  2.3144
 8803SOL    HW227851   1.509   1.685   0.522  0.9751  2.4797  0.5942
 8804SOL     OW27852   3.734   2.989  11.851 -0.1009 -0.7474 -0.3393
 8804SOL    HW127853   3.726   3.001  11.757  1.5535  0.2925 -0.3751
 8804SOL    HW227854   3.715   3.075  11.888 -1.4398 -1.3077  0.3546
 8805SOL     OW27855   4.155   2.655  12.415  0.2798 -0.0791 -0.9535
 8805SOL    HW127856   4.225   2.591  12.403  1.0724  0.8654 -1.4762
 8805SOL    HW227857   4.118   2.667  12.328 -0.2352 -0.2426 -0.7573
 8806SOL     OW27858   3.267   2.286  11.051  0.0119 -0.1686 -0.0853
 8806SOL    HW127859   3.309   2.266  10.968 -0.4099  0.2985 -0.4172
 8806SOL    HW227860   3.267   2.382  11.055 -1.4185 -0.1417 -0.3051
 8807SOL     OW27861   2.226   1.856  12.042  0.5304  0.5483  0.2934
 8807SOL    HW127862   2.139   1.847  12.003 -0.0792  4.0166  0.4801
 8807SOL    HW227863   2.282   1.796  11.993 -1.8627 -1.4953 -0.0932
 8808SOL     OW27864   0.804   3.808  11.811  0.5863  0.1789  0.2180
 8808SOL    HW127865   0.782   3.715  11.807 -0.4166  0.4317 -1.0267
 8808SOL    HW227866   0.891   3.811  11.849  1.7070 -1.4486 -2.0271
 8809SOL     OW27867   2.744   1.056  12.386  0.7137 -0.1956  0.1490
 8809SOL    HW127868   2.693   1.137  12.386  1.9835  0.6337 -0.5310
 8809SOL    HW227869   2.679   0.987  12.376 -0.3349  0.7777  0.0419
 8810SOL     OW27870   1.010   4.111   0.069 -0.5133  0.1976  0.2126
 8810SOL    HW127871   0.956   4.096  -0.009  1.8425  2.6355 -2.1157
 8810SOL    HW227872   0.951   4.154   0.131 -1.9790  0.0755 -1.0296
 8811SOL     OW27873   1.137   2.077  12.064  0.1949 -0.0906 -0.1773
 8811SOL    HW127874   1.159   2.169  12.081  4.2530 -0.7919 -0.7359
 8811SOL    HW227875   1.128   2.038  12.150  1.0534  0.3155  0.1049
 8812SOL     OW27876   3.366   2.638  12.019 -0.0696 -0.5409 -0.4627
 8812SOL    HW127877   3.332   2.724  12.045 -0.8540 -0.2634 -2.2724
 8812SOL    HW227878   3.459   2.653  12.005 -0.4546  0.4413 -2.2733
 8813SOL     OW27879   3.030   3.313  11.702 -0.0127  0.0093  0.0651
 8813SOL    HW127880   3.083   3.388  11.729  3.0216 -2.1568  0.7347
 8813SOL    HW227881   3.013   3.266  11.784  1.0915 -1.7250 -0.6456
 8814SOL     OW27882   4.639   2.595  11.283 -0.8908  0.0762 -0.3865
 8814SOL    HW127883   4.568   2.652  11.254 -1.0448 -0.3085 -0.7644
 8814SOL    HW227884   4.700   2.655  11.327  0.7961  1.2545 -3.9240
 8815SOL     OW27885   3.457   1.516  11.281 -0.1281  0.1767  0.1630
 8815SOL    HW127886   3.490   1.433  11.316  1.5872  0.1750 -1.3051
 8815SOL    HW227887   3.362   1.508  11.286  0.0040 -1.7912  0.2425
 8816SOL     OW27888   3.246   2.458   0.417 -0.2214  0.1706 -0.1210
 8816SOL    HW127889   3.199   2.387   0.374 -2.4547  1.1652  0.5211
 8816SOL    HW227890   3.238   2.440   0.511  1.1263  0.1265  0.0050
 8817SOL     OW27891   4.637   2.881  12.456 -0.2935 -0.1682 -0.3551
 8817SOL    HW127892   4.565   2.849  12.400 -1.0533  0.1347  0.4232
 8817SOL    HW227893   4.599   2.885  12.544  0.7410 -0.1652  0.1048
 8818SOL     OW27894   2.441   2.499  12.346 -0.1104  0.3460 -0.4476
 8818SOL    HW127895   2.394   2.541  12.418  0.4432 -0.4690  0.4191
 8818SOL    HW227896   2.389   2.519  12.268 -0.6318  1.3826  0.1535
 8819SOL     OW27897   2.175   3.662  11.802  0.1306 -0.0588 -0.1584
 8819SOL    HW127898   2.111   3.732  11.818 -0.3859  0.0005 -2.2146
 8819SOL    HW227899   2.123   3.588  11.772  0.7462 -1.1329  1.3231
 8820SOL     OW27900   2.955   4.227  11.821  0.4803  0.1161  0.1871
 8820SOL    HW127901   2.931   4.179  11.742  1.0118  1.9281 -1.1254
 8820SOL    HW227902   2.961   4.159  11.889 -0.9181 -1.3572 -1.0831
 8821SOL     OW27903   1.830   1.021  11.537  0.2227 -0.1606  0.1669
 8821SOL    HW127904   1.839   0.934  11.499  0.7124 -1.8068  3.5882
 8821SOL    HW227905   1.919   1.045  11.565  0.2578  1.9096 -1.4893
 8822SOL     OW27906   4.219   1.220   0.194 -0.0092 -0.1940  0.2030
 8822SOL    HW127907   4.291   1.283   0.187  0.0957 -0.1336  1.5895
 8822SOL    HW227908   4.140   1.273   0.188  0.0474 -0.1914 -0.7146
 8823SOL     OW27909   1.813   1.464  11.932 -0.9699 -1.0340  0.2070
 8823SOL    HW127910   1.861   1.517  11.995  1.8893 -2.4602 -0.6076
 8823SOL    HW227911   1.814   1.516  11.851 -0.9848 -0.9875  0.2365
 8824SOL     OW27912   3.582   2.833   2.354  0.0137 -0.7068  1.1162
 8824SOL    HW127913   3.517   2.781   2.306 -0.2171  0.3484  0.2426
 8824SOL    HW227914   3.604   2.779   2.430 -0.6786 -1.7966  0.5740
 8825SOL     OW27915   1.489   2.758   0.070  0.1415 -0.0596  0.0926
 8825SOL    HW127916   1.504   2.733  -0.021  1.3317 -0.5830  0.4099
 8825SOL    HW227917   1.544   2.699   0.120 -0.1192  0.5545  1.1289
 8826SOL     OW27918   5.771   1.973   0.560 -0.5262  0.0980 -0.6419
 8826SOL    HW127919   5.790   1.909   0.492  0.3065  0.1487 -0.4703
 8826SOL    HW227920   5.760   2.056   0.513 -0.1535  0.0958 -0.7337
 8827SOL     OW27921   2.183   4.145  12.232 -0.0201 -0.1202  0.0148
 8827SOL    HW127922   2.165   4.200  12.308  1.0935 -0.2913  0.4257
 8827SOL    HW227923   2.240   4.198  12.176 -0.5561 -0.1211 -0.5476
 8828SOL     OW27924   3.788   2.061   0.674 -1.1579 -0.1434  0.4049
 8828SOL    HW127925   3.698   2.065   0.641 -1.7388  1.0600  2.0018
 8828SOL    HW227926   3.819   2.152   0.669 -0.7825 -0.1791  1.7763
 8829SOL     OW27927   2.350   1.149  10.825 -0.4107  0.0849  0.0934
 8829SOL    HW127928   2.417   1.104  10.876  0.0970  1.8130  1.0476
 8829SOL    HW227929   2.268   1.129  10.870 -0.2759 -0.4312  0.1067
 8830SOL     OW27930   0.645   2.321  11.510 -0.1965  0.0169  0.0081
 8830SOL    HW127931   0.570   2.373  11.540 -0.7502 -0.6744 -0.1425
 8830SOL    HW227932   0.641   2.328  11.414 -0.9530 -1.1893 -0.0767
 8831SOL     OW27933   4.659   3.021  10.360  0.3699  0.2438  0.6460
 8831SOL    HW127934   4.733   3.068  10.401  0.6357 -0.2380  0.7216
 8831SOL    HW227935   4.656   2.937  10.406  1.2056 -0.6564 -0.8701
 8832SOL     OW27936   3.594   1.094  10.867  0.1440  0.0344  0.0762
 8832SOL    HW127937   3.502   1.069  10.880  0.2529 -0.4216 -0.0074
 8832SOL    HW227938   3.638   1.012  10.843  0.9432 -0.1314  1.9345
 8833SOL     OW27939   3.362   2.484   0.013 -0.2482 -0.0794 -0.1471
 8833SOL    HW127940   3.302   2.437  -0.044 -0.6113  0.1470  0.0418
 8833SOL    HW227941   3.448   2.473  -0.027 -0.5403  0.3297 -0.9081
 8834SOL     OW27942   1.665   1.828  10.857  0.1468 -0.1651  0.0208
 8834SOL    HW127943   1.743   1.883  10.853 -0.9713  1.4847 -0.0793
 8834SOL    HW227944   1.619   1.858  10.936 -0.3753 -1.1381  0.0969
 8835SOL     OW27945   2.304   4.332   9.545  0.2344  0.6113  0.6982
 8835SOL    HW127946   2.360   4.409   9.538  1.6348 -0.4935 -1.0563
 8835SOL    HW227947   2.357   4.261   9.511 -1.4567 -0.9257  1.1294
 8836SOL     OW27948   1.764   6.654  10.161  0.1332  0.0121 -0.5470
 8836SOL    HW127949   1.839   6.711  10.179  0.8517 -1.5272  1.7792
 8836SOL    HW227950   1.704   6.669  10.234  0.1712 -1.8858 -0.0814
 8837SOL     OW27951   2.801   3.796   1.642 -0.0788 -0.0041  0.0991
 8837SOL    HW127952   2.868   3.855   1.675 -0.8648  1.4693 -0.8496
 8837SOL    HW227953   2.786   3.823   1.552  0.3269 -2.4083 -0.7703
 8838SOL     OW27954   2.229   2.377   2.724  0.2388  0.3424  0.2896
 8838SOL    HW127955   2.195   2.447   2.667 -0.2404 -0.2152 -0.1197
 8838SOL    HW227956   2.304   2.417   2.768 -0.7901  1.5481  1.0446
 8839SOL     OW27957   2.369   6.488   1.922 -0.1708 -0.3482  0.6153
 8839SOL    HW127958   2.391   6.569   1.968 -2.0932 -0.7180  2.3515
 8839SOL    HW227959   2.361   6.514   1.831 -0.0514  1.2822  1.0353
 8840SOL     OW27960   2.627   6.128   1.307  0.1178 -0.6375  0.0495
 8840SOL    HW127961   2.616   6.087   1.221 -2.4588 -2.2986  1.0319
 8840SOL    HW227962   2.679   6.065   1.356 -1.7531 -1.6826  0.8114
 8841SOL     OW27963   2.183   5.388   0.868  0.1951  0.1917 -0.2616
 8841SOL    HW127964   2.240   5.348   0.802 -0.2052 -0.0708 -0.4481
 8841SOL    HW227965   2.244   5.423   0.934  0.6188  0.7816 -0.9421
 8842SOL     OW27966   5.133   2.524   0.822 -0.1816  0.3797 -0.1880
 8842SOL    HW127967   5.197   2.522   0.893 -0.6920  2.3196  0.3833
 8842SOL    HW227968   5.181   2.562   0.748  0.3241 -1.5551 -0.8945
 8843SOL     OW27969   1.181   3.158  11.721  0.1798 -0.6430  0.3839
 8843SOL    HW127970   1.184   3.154  11.625  0.8710  0.2132  0.3570
 8843SOL    HW227971   1.261   3.204  11.746 -0.9492  0.9431  1.2569
 8844SOL     OW27972   2.668   4.559   1.405  0.1406 -0.2736  0.5732
 8844SOL    HW127973   2.606   4.618   1.448  0.2894 -0.0458  0.4722
 8844SOL    HW227974   2.615   4.510   1.342  0.3658  1.1215 -0.7407
 8845SOL     OW27975   2.591   4.093  12.359 -0.1479 -0.2056 -0.2707
 8845SOL    HW127976   2.516   4.131  12.315 -0.6226  1.2693  1.6740
 8845SOL    HW227977   2.577   4.112  12.452  2.5225 -0.0426  0.1845
 8846SOL     OW27978   3.001   5.077   1.661 -0.2982 -0.0715 -0.5043
 8846SOL    HW127979   3.093   5.075   1.634  0.0233 -0.8616  0.5910
 8846SOL    HW227980   2.953   5.045   1.585  0.6126 -2.5619 -0.0997
 8847SOL     OW27981   3.217   3.829   2.127 -0.0597  0.2839  0.0615
 8847SOL    HW127982   3.182   3.768   2.191 -0.0986 -0.8390 -0.9823
 8847SOL    HW227983   3.300   3.790   2.099 -0.2816  0.4889 -0.9170
 8848SOL     OW27984   4.236   4.754   1.462 -0.5575  0.2858 -0.0828
 8848SOL    HW127985   4.229   4.747   1.367 -2.4725  2.1420 -0.1703
 8848SOL    HW227986   4.177   4.687   1.496  1.7014 -1.8198 -0.0609
 8849SOL     OW27987   1.882   3.099   1.054 -0.1788  0.3557 -0.5169
 8849SOL    HW127988   1.865   3.192   1.068 -1.2359  0.0832  0.1303
 8849SOL    HW227989   1.972   3.086   1.083 -1.5105  0.2464  4.4420
 8850SOL     OW27990   1.882   5.505  12.079 -0.2657 -0.1320  0.5981
 8850SOL    HW127991   1.843   5.426  12.116 -1.0803 -0.3841 -0.7230
 8850SOL    HW227992   1.966   5.475  12.042 -0.1158 -0.1722  0.9691
 8851SOL     OW27993   3.401   5.970   1.942 -0.8328 -0.5707  0.0434
 8851SOL    HW127994   3.465   5.971   1.870  0.3021  0.7071  1.0202
 8851SOL    HW227995   3.318   5.990   1.899  0.0636  1.7796 -0.7843
 8852SOL     OW27996   3.059   4.589   2.186  0.4930  0.1787 -0.7201
 8852SOL    HW127997   3.054   4.614   2.278  0.1105 -0.0856 -0.6684
 8852SOL    HW227998   3.063   4.493   2.187 -0.0547  0.1482 -0.9996
 8853SOL     OW27999   3.141   4.326   0.625 -0.2278  0.0490  0.0744
 8853SOL    HW128000   3.209   4.273   0.582  1.2480 -1.5355  3.9255
 8853SOL    HW228001   3.101   4.267   0.689 -1.8790  2.3304  1.2921
 8854SOL     OW28002   2.501   5.847   3.291  0.1515 -0.6263 -0.2005
 8854SOL    HW128003   2.466   5.823   3.377  0.8765  0.5712  0.4518
 8854SOL    HW228004   2.462   5.932   3.272  0.9775 -0.2953 -0.4687
 8855SOL     OW28005   3.899   6.190   1.998  0.2575  0.0066 -0.1346
 8855SOL    HW128006   3.916   6.275   1.959  0.3884  0.6108  1.2042
 8855SOL    HW228007   3.940   6.194   2.085 -3.2016  0.1366  1.6711
 8856SOL     OW28008   2.400   4.255  11.449  0.4777  0.1231  0.4058
 8856SOL    HW128009   2.423   4.321  11.383  0.5111  0.0774  0.3711
 8856SOL    HW228010   2.459   4.273  11.522  1.4596 -0.7240 -0.1361
 8857SOL     OW28011   3.617   2.988   0.513 -0.3059 -0.4022  0.2499
 8857SOL    HW128012   3.684   3.020   0.573 -0.3982 -0.6375  0.4807
 8857SOL    HW228013   3.666   2.954   0.438 -0.2393  2.6515 -1.2559
 8858SOL     OW28014   1.013   4.778   1.498  0.1139  0.2797  0.3487
 8858SOL    HW128015   1.000   4.845   1.431  0.0165 -0.4840 -0.4176
 8858SOL    HW228016   1.093   4.804   1.543 -0.5115  1.5074  0.8031
 8859SOL     OW28017   3.010   4.510   0.336  0.1613 -0.2633  0.3802
 8859SOL    HW128018   3.069   4.443   0.302 -1.8148 -1.2965 -1.1911
 8859SOL    HW228019   3.032   4.589   0.288 -0.9061 -1.1010 -1.5829
 8860SOL     OW28020   3.540   4.521  11.914 -0.6927 -0.4899 -0.1148
 8860SOL    HW128021   3.495   4.490  11.993 -1.4805 -0.2497 -0.4623
 8860SOL    HW228022   3.514   4.613  11.906  1.4793  0.2973  0.8092
 8861SOL     OW28023   3.468   5.138   0.471 -0.2981  0.0863  0.1937
 8861SOL    HW128024   3.446   5.066   0.530  1.2856 -1.1733 -0.6797
 8861SOL    HW228025   3.393   5.145   0.412 -0.1710 -1.3792 -0.1753
 8862SOL     OW28026   3.323   5.700  12.162  0.0673  0.2852  0.1412
 8862SOL    HW128027   3.406   5.676  12.204  0.5924  0.6630 -0.6512
 8862SOL    HW228028   3.301   5.625  12.108 -0.9188 -0.4495  1.5029
 8863SOL     OW28029   0.504   4.439   2.403  0.1912  0.7474  1.1416
 8863SOL    HW128030   0.537   4.451   2.492 -0.2795 -1.9889  1.7813
 8863SOL    HW228031   0.497   4.344   2.393  0.3922  0.9534 -1.8966
 8864SOL     OW28032   2.835   4.828   0.571 -1.0919  0.9508  0.3009
 8864SOL    HW128033   2.755   4.801   0.525  0.2773  0.0917 -1.6920
 8864SOL    HW228034   2.851   4.757   0.634 -0.5982 -0.1464 -1.0079
 8865SOL     OW28035   3.399   5.969   1.646  0.1000 -0.1100  0.2309
 8865SOL    HW128036   3.446   5.949   1.565 -0.7094  0.3059 -0.3596
 8865SOL    HW228037   3.365   5.885   1.675  1.1084 -0.3969  0.6090
 8866SOL     OW28038   1.137   4.856  11.144  0.3624 -0.2268  0.1695
 8866SOL    HW128039   1.156   4.802  11.221  0.2642  2.3627  2.1428
 8866SOL    HW228040   1.214   4.847  11.089  0.6839 -1.7154  0.8168
 8867SOL     OW28041   3.077   2.968  12.173 -0.7408 -0.8793  0.1357
 8867SOL    HW128042   3.021   2.938  12.102 -0.5415 -0.1904 -0.3287
 8867SOL    HW228043   3.164   2.938  12.149 -0.4086  0.6402 -0.7179
 8868SOL     OW28044   3.076   3.634  11.376  0.3018 -0.1856 -0.0302
 8868SOL    HW128045   3.062   3.715  11.327 -0.5225 -0.6096 -0.5113
 8868SOL    HW228046   3.074   3.661  11.468  0.3475  0.3873 -0.1967
 8869SOL     OW28047   3.368   4.741   2.547 -0.0136  0.5704  0.0254
 8869SOL    HW128048   3.411   4.708   2.468 -1.6647  0.0510 -0.7032
 8869SOL    HW228049   3.419   4.703   2.619  0.2625 -0.6929 -0.7950
 8870SOL     OW28050   3.016   4.934   0.402  0.3685 -0.4904  0.4155
 8870SOL    HW128051   2.942   4.894   0.447  0.7800  2.1612  3.8678
 8870SOL    HW228052   3.083   4.867   0.400 -0.6905 -1.6091  1.1569
 8871SOL     OW28053   3.301   3.632   0.037 -0.1320  0.0260  0.2126
 8871SOL    HW128054   3.372   3.569   0.030 -1.1132 -1.2254  1.1239
 8871SOL    HW228055   3.322   3.700  -0.027  1.6787 -0.4924  0.2210
 8872SOL     OW28056   3.524   3.606   2.484  0.8075 -0.1439  0.3930
 8872SOL    HW128057   3.612   3.599   2.520  0.3580  1.5661  1.9793
 8872SOL    HW228058   3.527   3.684   2.428 -0.4906  2.2480  3.3584
 8873SOL     OW28059   3.261   4.942  12.257  0.0160 -0.7584  0.3628
 8873SOL    HW128060   3.339   4.977  12.213  0.1522 -2.4569 -0.8434
 8873SOL    HW228061   3.189   4.997  12.224  0.2952 -1.1716 -1.0232
 8874SOL     OW28062   2.359   5.269   1.258  0.2947 -0.3431  0.1569
 8874SOL    HW128063   2.400   5.266   1.344  0.8151 -0.7431 -0.0911
 8874SOL    HW228064   2.286   5.207   1.264  0.5733 -0.6734  0.1970
 8875SOL     OW28065   2.748   4.983  12.346  1.0778 -0.0066 -0.1802
 8875SOL    HW128066   2.777   4.977  12.437  0.2850  0.0638  0.0794
 8875SOL    HW228067   2.825   4.957  12.295  1.7582  0.6952  0.4751
 8876SOL     OW28068   3.012   4.314   2.041  0.4459 -0.0310  0.1275
 8876SOL    HW128069   3.078   4.373   2.003  1.0310 -1.2368 -0.8354
 8876SOL    HW228070   3.044   4.226   2.018 -1.1906 -0.6638  0.1684
 8877SOL     OW28071   4.343   4.619   2.653 -0.0264 -0.3574 -0.1400
 8877SOL    HW128072   4.262   4.632   2.703 -0.2176  0.1474 -0.5785
 8877SOL    HW228073   4.316   4.625   2.562  0.7697  1.5294 -0.2855
 8878SOL     OW28074   3.375   4.679   1.922  0.1993  0.2126 -0.6010
 8878SOL    HW128075   3.429   4.746   1.964 -0.2308  1.0169 -1.2923
 8878SOL    HW228076   3.293   4.724   1.902 -0.2993 -0.6752 -0.6057
 8879SOL     OW28077   3.182   4.298  12.023  0.1945 -0.6447  0.4151
 8879SOL    HW128078   3.150   4.208  12.027 -1.1987 -0.3375 -2.0047
 8879SOL    HW228079   3.115   4.349  12.070 -1.3279 -0.4165 -1.8506
 8880SOL     OW28080   2.805   4.591  12.069 -0.3070  0.1843  0.6698
 8880SOL    HW128081   2.865   4.650  12.114  0.5119 -0.9749  1.1543
 8880SOL    HW228082   2.861   4.538  12.012 -1.2565  1.2151 -1.3121
 8881SOL     OW28083   1.823   3.553   0.425  0.2014  0.0702  0.2010
 8881SOL    HW128084   1.755   3.491   0.450 -0.5284  1.2418  1.2229
 8881SOL    HW228085   1.874   3.566   0.504 -0.9750  2.3708  0.6768
 8882SOL     OW28086   0.309   5.451   3.592 -0.4237  0.1717 -0.0089
 8882SOL    HW128087   0.249   5.438   3.665  0.8054 -3.4244  0.5697
 8882SOL    HW228088   0.389   5.486   3.632 -0.2073 -0.5274  0.1837
 8883SOL     OW28089   1.899   6.139  10.564 -0.2390  0.1051 -0.2576
 8883SOL    HW128090   1.994   6.125  10.560 -0.2410  0.3013 -2.6015
 8883SOL    HW228091   1.866   6.066  10.615  1.3664  1.4246  2.9401
 8884SOL     OW28092   2.132   2.637   0.458  0.1107 -0.3011  0.1512
 8884SOL    HW128093   2.036   2.644   0.455 -0.0379 -0.6883  2.3837
 8884SOL    HW228094   2.152   2.615   0.549  2.3047 -0.8669 -0.4047
 8885SOL     OW28095   3.263   6.813   0.844  0.0006 -0.4604 -0.0395
 8885SOL    HW128096   3.204   6.789   0.916  0.7829  2.3746  1.7005
 8885SOL    HW228097   3.345   6.770   0.865 -0.3396 -1.3004 -0.3855
 8886SOL     OW28098   2.910   4.011  11.661  0.3684 -1.0540  0.0562
 8886SOL    HW128099   2.952   3.929  11.635  0.1653 -0.3771 -2.6999
 8886SOL    HW228100   2.822   4.005  11.626 -0.2632 -0.3562  1.4172
 8887SOL     OW28101   2.065   4.964   0.890 -0.0662 -0.3214  0.1348
 8887SOL    HW128102   2.015   4.883   0.892  0.9181 -0.9631 -0.6270
 8887SOL    HW228103   2.096   4.971   0.799 -0.4096  1.0810  0.0928
 8888SOL     OW28104   3.580   6.990   0.816  0.2261  0.0091  0.0573
 8888SOL    HW128105   3.637   6.946   0.752 -1.1758 -0.9662 -0.5558
 8888SOL    HW228106   3.614   7.079   0.819  1.6876 -0.4867 -0.4132
 8889SOL     OW28107   2.799   4.734  10.904 -0.1905  0.0517  0.5176
 8889SOL    HW128108   2.834   4.713  10.990  1.6528 -0.4010 -0.2751
 8889SOL    HW228109   2.876   4.733  10.846 -1.4677 -0.4986 -1.2782
 8890SOL     OW28110   2.008   4.700   2.942 -0.1179 -0.6043 -0.0470
 8890SOL    HW128111   1.968   4.724   2.859 -0.0066  0.0570  0.0829
 8890SOL    HW228112   2.046   4.782   2.975 -0.2681 -0.8289  0.7119
 8891SOL     OW28113   3.434   5.462   1.839 -0.1180 -0.4093  0.2240
 8891SOL    HW128114   3.443   5.515   1.760  1.2322  1.1987  1.3920
 8891SOL    HW228115   3.340   5.460   1.856 -0.1867  2.0325  0.3678
 8892SOL     OW28116   3.001   6.816   1.047 -1.0697 -0.0680 -0.1635
 8892SOL    HW128117   2.934   6.854   0.989 -0.5694 -1.9645 -2.1074
 8892SOL    HW228118   2.979   6.723   1.051  2.8226 -1.3896 -3.1346
 8893SOL     OW28119   1.756   3.679   1.222 -0.0417  0.3032 -0.4035
 8893SOL    HW128120   1.823   3.737   1.185 -0.2420  0.5990 -0.3029
 8893SOL    HW228121   1.710   3.732   1.286  0.9880 -0.5030  1.0701
 8894SOL     OW28122   2.255   4.832   1.068  0.2195 -0.5510  0.7005
 8894SOL    HW128123   2.164   4.819   1.094  0.2050  1.3848  1.8472
 8894SOL    HW228124   2.251   4.899   0.999  0.8038  0.3423  1.5005
 8895SOL     OW28125   3.095   3.949   0.278 -0.1204 -0.1125 -0.4791
 8895SOL    HW128126   3.003   3.970   0.294  0.0412 -1.1072  2.4311
 8895SOL    HW228127   3.093   3.891   0.202 -2.0728 -0.9537  0.1309
 8896SOL     OW28128   1.630   4.670   1.573 -0.0979  0.5636 -0.2284
 8896SOL    HW128129   1.722   4.655   1.549 -0.4794 -1.2657 -0.7249
 8896SOL    HW228130   1.616   4.613   1.649 -1.1979 -0.3625 -1.0904
 8897SOL     OW28131   1.226   6.862   0.549 -0.0814 -0.4010 -0.4470
 8897SOL    HW128132   1.182   6.947   0.553 -0.5521 -0.5909 -1.2380
 8897SOL    HW228133   1.266   6.851   0.635  0.6610  0.9749 -0.5975
 8898SOL     OW28134   2.568   4.661   0.633 -0.3161  0.4908  0.1868
 8898SOL    HW128135   2.531   4.618   0.710 -0.8791 -0.0293 -0.3587
 8898SOL    HW228136   2.636   4.601   0.603 -2.0497 -0.8096 -1.4129
 8899SOL     OW28137   2.547   3.663   1.370  0.0521  0.0439 -0.3558
 8899SOL    HW128138   2.632   3.707   1.380  0.4651 -0.7748 -0.1579
 8899SOL    HW228139   2.537   3.611   1.449 -1.0838  0.8445  0.0519
 8900SOL     OW28140   3.235   5.195   0.355 -0.3518  0.4541 -0.6507
 8900SOL    HW128141   3.195   5.109   0.368 -0.2879  0.4890 -0.1896
 8900SOL    HW228142   3.172   5.257   0.391 -0.2067  0.5651 -0.5816
 8901SOL     OW28143   0.953   4.715   2.474  0.2671  0.0884 -0.5186
 8901SOL    HW128144   0.992   4.797   2.446  1.8992 -0.4908 -0.0665
 8901SOL    HW228145   0.939   4.726   2.568  1.1879 -0.3912 -0.3127
 8902SOL     OW28146   3.585   5.307   2.118  0.6516 -0.7804 -0.0835
 8902SOL    HW128147   3.554   5.304   2.208 -2.6704 -0.0922 -1.0950
 8902SOL    HW228148   3.574   5.217   2.086 -0.5808 -0.4853 -0.5125
 8903SOL     OW28149   2.026   4.443  12.330  1.1149  0.5446  0.7383
 8903SOL    HW128150   1.938   4.444  12.369  0.8142  0.8687  0.0687
 8903SOL    HW228151   2.083   4.478  12.399  0.8928 -0.6078  1.5438
 8904SOL     OW28152   2.928   4.677   0.847  0.1515  0.3433 -0.5032
 8904SOL    HW128153   2.954   4.747   0.907  1.5509  0.2050 -0.9065
 8904SOL    HW228154   3.009   4.652   0.804 -0.4897 -0.9270 -1.0124
 8905SOL     OW28155   3.494   6.211   1.715 -0.0674 -0.0103  0.3608
 8905SOL    HW128156   3.461   6.125   1.690  0.2382 -0.0347  0.0511
 8905SOL    HW228157   3.585   6.213   1.686 -0.4415  0.9092 -0.8326
 8906SOL     OW28158   3.273   3.410   0.685 -0.0028  0.3719  0.3805
 8906SOL    HW128159   3.222   3.481   0.724 -0.2194 -0.6224  1.9749
 8906SOL    HW228160   3.361   3.421   0.721  0.3628  0.7280 -0.5836
 8907SOL     OW28161   2.118   5.229   3.661 -0.6551 -0.5029  0.6644
 8907SOL    HW128162   2.120   5.219   3.757 -0.2389  1.7127  0.9555
 8907SOL    HW228163   2.211   5.226   3.636 -0.7969 -1.6128  0.2421
 8908SOL     OW28164   3.703   5.502   1.564 -0.4790 -0.4417 -0.1917
 8908SOL    HW128165   3.669   5.580   1.607  1.7445  0.3092  0.3090
 8908SOL    HW228166   3.713   5.438   1.634  0.2300 -0.2493 -0.1056
 8909SOL     OW28167   1.371   3.788   2.515 -0.2857 -0.5182 -0.0739
 8909SOL    HW128168   1.351   3.830   2.598 -1.0174 -0.4552 -0.2742
 8909SOL    HW228169   1.450   3.832   2.484 -0.2383 -0.2723  0.3969
 8910SOL     OW28170   1.599   3.692   1.471 -0.0928 -0.2885  0.1925
 8910SOL    HW128171   1.617   3.624   1.536 -0.7457 -1.3284 -0.6813
 8910SOL    HW228172   1.503   3.696   1.467 -0.0717 -1.0172 -1.4854
 8911SOL     OW28173   1.872   3.785   1.834  0.2651  0.1876 -0.6342
 8911SOL    HW128174   1.966   3.778   1.848  0.0854 -2.2206 -0.2909
 8911SOL    HW228175   1.843   3.696   1.815 -1.8124  1.0073 -1.7073
 8912SOL     OW28176   3.047   4.063  12.026 -0.4139  0.2617 -0.5530
 8912SOL    HW128177   2.978   4.049  12.091 -1.0435  0.3220 -1.1942
 8912SOL    HW228178   3.078   3.974  12.005 -0.3990  0.2244 -0.3772
 8913SOL     OW28179   1.399   4.012   1.357 -0.0796 -0.0298  0.2464
 8913SOL    HW128180   1.418   4.077   1.424 -0.6634  1.8494 -1.3112
 8913SOL    HW228181   1.387   4.063   1.277  0.6272 -2.1657 -1.3253
 8914SOL     OW28182   4.611   6.375   2.157  0.2082 -0.3447  0.5380
 8914SOL    HW128183   4.562   6.311   2.209  0.6293 -0.5788  0.6505
 8914SOL    HW228184   4.608   6.455   2.210  2.4944 -1.1467  2.0306
 8915SOL     OW28185   3.148   5.443   1.876  0.0403  0.0813  1.0686
 8915SOL    HW128186   3.095   5.408   1.805  1.6961 -1.2120  0.4195
 8915SOL    HW228187   3.097   5.517   1.909 -0.6923  0.8739 -1.5910
 8916SOL     OW28188   1.717   7.420  11.925  0.3311 -0.4308  0.1148
 8916SOL    HW128189   1.692   7.478  11.997  2.1300 -0.1286  0.5202
 8916SOL    HW228190   1.651   7.351  11.927 -0.5494  0.3977  1.0407
 8917SOL     OW28191   2.722   4.376  11.063 -0.1783  0.6932 -0.0774
 8917SOL    HW128192   2.642   4.419  11.033 -0.8358  0.0676  0.7564
 8917SOL    HW228193   2.697   4.285  11.076  0.4777  0.6437  0.9147
 8918SOL     OW28194   2.279   4.616   0.796  0.1459 -0.7233 -0.1466
 8918SOL    HW128195   2.311   4.706   0.794 -1.8992  0.0794  1.0829
 8918SOL    HW228196   2.226   4.607   0.718 -0.0247 -0.7133 -0.0323
 8919SOL     OW28197   2.717   2.851  12.181  0.2729 -0.2075  0.3050
 8919SOL    HW128198   2.663   2.883  12.254  0.2423 -0.8061  0.5562
 8919SOL    HW228199   2.784   2.918  12.169 -0.7570  0.7387 -0.2704
 8920SOL     OW28200   1.135   3.176  11.457  0.0721  0.1031 -0.7288
 8920SOL    HW128201   1.213   3.175  11.401 -1.1372  2.9417 -2.6597
 8920SOL    HW228202   1.062   3.162  11.397 -1.1213  0.5435  0.5878
 8921SOL     OW28203   3.796   3.477   2.000  0.7072  0.6339  0.0356
 8921SOL    HW128204   3.733   3.536   1.959  0.3685  0.0170 -0.3580
 8921SOL    HW228205   3.769   3.472   2.092 -0.4633 -0.4126 -0.3352
 8922SOL     OW28206   2.218   4.392  11.626 -0.4746  0.1591  0.3515
 8922SOL    HW128207   2.307   4.358  11.616 -0.2597  0.8929 -0.2945
 8922SOL    HW228208   2.189   4.358  11.711  0.9072  0.9778  1.1908
 8923SOL     OW28209   3.446   4.837   0.206  0.4054  0.1063 -0.2719
 8923SOL    HW128210   3.542   4.831   0.208  0.3820 -0.2396  1.8448
 8923SOL    HW228211   3.418   4.754   0.168  0.9382  1.1928 -3.3120
 8924SOL     OW28212   4.059   4.150   0.010 -0.6550  0.0828 -0.4735
 8924SOL    HW128213   4.029   4.065  -0.023 -0.6858 -0.2402  0.3637
 8924SOL    HW228214   3.997   4.172   0.079  0.0963  0.1697  0.1883
 8925SOL     OW28215   2.228   4.575   0.038  0.5782  0.3921 -0.1798
 8925SOL    HW128216   2.317   4.558   0.067  0.3772  0.4540  0.4912
 8925SOL    HW228217   2.207   4.661   0.075  0.3585  0.5306 -0.6203
 8926SOL     OW28218   4.713   4.081  12.053  0.2107 -0.2284 -0.2498
 8926SOL    HW128219   4.711   3.987  12.039 -1.6172 -0.0464 -1.5303
 8926SOL    HW228220   4.741   4.118  11.969  0.4597  0.4000  0.1003
 8927SOL     OW28221   4.262   3.843   1.473 -0.0232 -0.3247 -0.7004
 8927SOL    HW128222   4.209   3.922   1.484  2.0692  0.9794  0.7293
 8927SOL    HW228223   4.245   3.792   1.552  1.0980  0.3194 -0.0042
 8928SOL     OW28224   0.839   4.958   0.774  0.5124 -0.4462  0.1389
 8928SOL    HW128225   0.932   4.946   0.758  0.6915  1.3409 -0.3243
 8928SOL    HW228226   0.801   4.978   0.689 -0.0437  0.3022  0.5473
 8929SOL     OW28227   3.691   5.977   0.990  0.1990  0.3405 -0.2824
 8929SOL    HW128228   3.729   6.051   0.941  2.3546 -0.7278 -0.3563
 8929SOL    HW228229   3.707   5.901   0.934  1.0112 -0.6318  1.2143
 8930SOL     OW28230   3.329   6.073   2.262 -0.0406 -0.4687 -0.2062
 8930SOL    HW128231   3.402   6.115   2.307  0.2636 -1.6449  0.4462
 8930SOL    HW228232   3.282   6.144   2.218  0.7045  0.4668  0.5015
 8931SOL     OW28233   4.992   5.791   1.038 -0.0323 -0.1076  0.5412
 8931SOL    HW128234   4.997   5.836   0.954 -0.9702 -1.5496 -0.3210
 8931SOL    HW228235   5.056   5.836   1.093 -0.5366  1.8817 -0.4372
 8932SOL     OW28236   2.427   3.816   1.971 -0.4041 -0.8569  0.2190
 8932SOL    HW128237   2.418   3.738   2.024 -0.4191 -0.4694  0.7949
 8932SOL    HW228238   2.512   3.806   1.928 -0.0491 -0.8309  0.8958
 8933SOL     OW28239   3.767   4.201   2.152  0.1264 -0.0245  0.2853
 8933SOL    HW128240   3.732   4.203   2.241 -1.0455 -0.3311 -0.1386
 8933SOL    HW228241   3.796   4.290   2.135 -0.1303  0.1599  0.7961
 8934SOL     OW28242   1.978   4.013   3.719 -0.3957  0.1688  0.5041
 8934SOL    HW128243   1.944   4.061   3.644  0.0846 -0.6199 -0.2368
 8934SOL    HW228244   1.932   3.929   3.717  1.2015 -0.7295 -0.2390
 8935SOL     OW28245   1.303   4.990   2.653 -0.1005  0.4144  0.7638
 8935SOL    HW128246   1.340   5.078   2.648 -0.9765  0.7581 -0.0930
 8935SOL    HW228247   1.336   4.954   2.735  3.8125 -0.0798 -0.8149
 8936SOL     OW28248   2.376   3.096   0.217 -0.4838  0.3406  0.2089
 8936SOL    HW128249   2.386   3.181   0.260 -2.5052  0.7186  0.0740
 8936SOL    HW228250   2.360   3.118   0.125  0.5404 -0.2813 -0.1262
 8937SOL     OW28251   4.379   5.398   1.600  0.0849 -0.1201  0.5465
 8937SOL    HW128252   4.380   5.303   1.615 -0.5200 -0.0642  0.9482
 8937SOL    HW228253   4.288   5.424   1.613 -0.0074  0.3265 -0.8015
 8938SOL     OW28254   1.614   5.600   1.573 -0.2098  0.0578 -0.6713
 8938SOL    HW128255   1.537   5.630   1.524 -0.0644  1.7546  0.0602
 8938SOL    HW228256   1.672   5.677   1.575  0.9023 -0.7755 -0.0327
 8939SOL     OW28257   2.964   6.077   2.203 -0.1333  0.3184  0.3368
 8939SOL    HW128258   2.973   6.121   2.287  0.9388  0.2505  0.2653
 8939SOL    HW228259   2.966   6.147   2.138 -1.3957  0.4137  0.3664
 8940SOL     OW28260   3.948   5.213   2.639 -0.0174 -0.1690 -0.2347
 8940SOL    HW128261   3.860   5.226   2.674  0.1112 -0.6820  0.2929
 8940SOL    HW228262   3.946   5.257   2.554 -0.0245  2.0019  0.8229
 8941SOL     OW28263   3.005   3.037   0.588  0.1705  0.4775  0.0128
 8941SOL    HW128264   3.026   2.951   0.553  1.6980  0.6485  0.4341
 8941SOL    HW228265   2.912   3.048   0.570  0.1739 -0.8269 -0.9547
 8942SOL     OW28266   1.736   4.502  11.079  0.5041  0.5292  0.2162
 8942SOL    HW128267   1.802   4.486  11.012  0.0145  1.9030 -0.6462
 8942SOL    HW228268   1.653   4.503  11.031  0.0425  0.6415  0.9926
 8943SOL     OW28269   3.861   3.954   2.067 -0.2904  0.3890  0.0018
 8943SOL    HW128270   3.844   4.046   2.088  2.0580  0.7935  0.4062
 8943SOL    HW228271   3.834   3.906   2.146  0.0203  0.9296  0.4469
 8944SOL     OW28272   2.710   3.828  11.358  0.2317 -0.2461 -0.0765
 8944SOL    HW128273   2.717   3.826  11.453 -0.9229  2.0843  0.1334
 8944SOL    HW228274   2.651   3.756  11.336  0.6904 -0.9400  0.9198
 8945SOL     OW28275   3.164   7.957   2.904  0.0530  0.2454  0.6334
 8945SOL    HW128276   3.243   7.922   2.946 -0.3356  0.1179  1.2735
 8945SOL    HW228277   3.171   7.928   2.813  2.3000  2.8447 -0.1661
 8946SOL     OW28278   1.228   3.092   1.658  0.2307 -0.3705 -0.0264
 8946SOL    HW128279   1.274   3.162   1.704  1.5431 -0.6464 -0.8409
 8946SOL    HW228280   1.219   3.125   1.568 -0.0148 -0.8451 -0.1790
 8947SOL     OW28281   2.356   4.516   1.802  0.9559 -0.3603  0.3240
 8947SOL    HW128282   2.337   4.576   1.875  0.0305 -0.4834  0.1906
 8947SOL    HW228283   2.403   4.444   1.843 -0.7789 -1.1198  1.0869
 8948SOL     OW28284   2.572   2.800   1.784  0.0917 -0.1274 -0.6352
 8948SOL    HW128285   2.636   2.777   1.716  1.2922  0.6336  0.1951
 8948SOL    HW228286   2.584   2.894   1.797 -1.7510  0.1930 -0.9709
 8949SOL     OW28287   1.854   4.625   3.326 -0.1973 -0.2389 -0.8626
 8949SOL    HW128288   1.932   4.667   3.364 -0.7201  0.5666 -0.6681
 8949SOL    HW228289   1.782   4.684   3.348 -0.6312 -0.1425 -2.4461
 8950SOL     OW28290   3.229   4.681  12.312  0.1291  0.4126 -0.5618
 8950SOL    HW128291   3.136   4.664  12.295 -0.5731  0.8081  2.3847
 8950SOL    HW228292   3.241   4.773  12.288  0.0327  0.1066 -1.8504
 8951SOL     OW28293   3.425   4.270  12.174 -0.5404  0.0845  0.1487
 8951SOL    HW128294   3.339   4.267  12.131 -0.5631  0.4864  0.1633
 8951SOL    HW228295   3.436   4.361  12.201 -0.6660 -0.2246  1.3020
 8952SOL     OW28296   2.531   5.254   1.039 -0.1094  0.2509 -0.0538
 8952SOL    HW128297   2.482   5.231   0.960 -0.2437 -0.9340  0.3595
 8952SOL    HW228298   2.466   5.249   1.110 -0.0125  1.3832  0.1449
 8953SOL     OW28299   0.073   3.525   0.416  0.1471 -0.5948 -0.3089
 8953SOL    HW128300   0.143   3.557   0.473  0.2816 -0.4725 -0.5402
 8953SOL    HW228301   0.043   3.603   0.370  1.0352 -0.9144 -1.4800
 8954SOL     OW28302   2.857   5.451   2.024  0.5208  0.8158  0.5062
 8954SOL    HW128303   2.792   5.408   2.079  1.3760  0.7958  1.5351
 8954SOL    HW228304   2.847   5.411   1.938 -1.0802  1.0950  0.5349
 8955SOL     OW28305   4.289   3.489  12.372 -0.1902 -0.4196  0.4766
 8955SOL    HW128306   4.372   3.489  12.419 -0.7228  2.4790  1.6702
 8955SOL    HW228307   4.288   3.573  12.325 -0.6696 -2.2109 -3.0689
 8956SOL     OW28308   4.488   5.853   1.399 -0.0381 -0.0081 -0.1292
 8956SOL    HW128309   4.409   5.826   1.445 -1.1305 -0.3071 -2.0768
 8956SOL    HW228310   4.525   5.923   1.453 -1.5713  0.0740  0.8764
 8957SOL     OW28311   1.887   5.321  12.442  0.5807 -0.2629 -0.2723
 8957SOL    HW128312   1.965   5.330  12.387  2.4230  1.6808  2.3885
 8957SOL    HW228313   1.848   5.409  12.441  1.2900  0.1602  2.2221
 8958SOL     OW28314   4.171   4.747   1.861 -0.1515 -0.3520 -0.2805
 8958SOL    HW128315   4.182   4.659   1.824 -0.1315 -0.4093 -0.1405
 8958SOL    HW228316   4.158   4.732   1.954 -3.3750 -0.4272 -0.6398
 8959SOL     OW28317   4.664   3.204  11.733  0.1761  0.3192  0.1287
 8959SOL    HW128318   4.580   3.240  11.758  0.2780  0.6830 -0.0516
 8959SOL    HW228319   4.704   3.271  11.678  1.1513  0.7361  1.2952
 8960SOL     OW28320   2.178   6.492   2.190 -0.1672  0.1904  0.1928
 8960SOL    HW128321   2.094   6.494   2.143  0.9686 -1.0308 -2.0980
 8960SOL    HW228322   2.185   6.578   2.231 -2.2199  0.5618 -0.1093
 8961SOL     OW28323   3.455   5.397   1.256 -0.6127  0.5832 -0.0509
 8961SOL    HW128324   3.443   5.307   1.227  0.1419  0.8215 -1.1574
 8961SOL    HW228325   3.430   5.451   1.181 -0.4587  1.2844  0.3829
 8962SOL     OW28326   3.282   5.606   2.627 -0.0919 -0.3582  0.2278
 8962SOL    HW128327   3.266   5.602   2.721  1.0317  0.3467  0.4678
 8962SOL    HW228328   3.230   5.535   2.590  1.4836 -2.3808  1.6726
 8963SOL     OW28329   3.019   3.897   0.550  0.1221  0.1781  0.2292
 8963SOL    HW128330   2.968   3.978   0.545  1.2199  0.8863  0.3373
 8963SOL    HW228331   3.067   3.893   0.468 -2.1045 -1.9098 -1.1460
 8964SOL     OW28332   3.182   3.265  10.545 -0.4031 -0.3079  0.2031
 8964SOL    HW128333   3.168   3.274  10.639  0.6823  0.9719  0.2623
 8964SOL    HW228334   3.204   3.353  10.515  0.5189 -0.9364 -1.0277
 8965SOL     OW28335   2.724   4.356   0.230  0.3512 -0.0370 -0.5948
 8965SOL    HW128336   2.816   4.335   0.219  0.2615 -0.9215  0.1920
 8965SOL    HW228337   2.721   4.402   0.314  0.1636  0.5963 -0.9457
 8966SOL     OW28338   2.149   4.608   0.504 -0.2116  0.2468 -0.6442
 8966SOL    HW128339   2.149   4.517   0.475 -0.3019 -0.5007  1.5139
 8966SOL    HW228340   2.081   4.612   0.572  1.7405  1.1436  1.3877
 8967SOL     OW28341   3.103   5.221   3.458 -0.6258  0.4899 -0.3708
 8967SOL    HW128342   3.045   5.146   3.463 -0.3617  0.3526  1.0113
 8967SOL    HW228343   3.165   5.209   3.531  0.1426  1.4434 -0.8341
 8968SOL     OW28344   3.077   4.728   1.354  0.3205  0.3432  0.1094
 8968SOL    HW128345   3.001   4.743   1.298 -0.2497 -0.8746  0.5046
 8968SOL    HW228346   3.069   4.792   1.424 -0.6020 -0.0696  0.3935
 8969SOL     OW28347   2.354   4.509   1.386  0.2146  0.1841 -0.0342
 8969SOL    HW128348   2.359   4.460   1.468  2.9509  0.6815  0.1943
 8969SOL    HW228349   2.267   4.489   1.351 -0.0934 -1.9852  1.7593
 8970SOL     OW28350   2.908   5.137   2.329  0.5132 -0.0862 -0.1637
 8970SOL    HW128351   2.886   5.101   2.415  0.0921 -1.2221 -0.7099
 8970SOL    HW228352   2.834   5.195   2.308  1.5793  1.8006  1.0692
 8971SOL     OW28353   2.282   7.307   0.772  0.6257  0.4454  0.3016
 8971SOL    HW128354   2.198   7.261   0.774  0.3356  0.9859  0.7856
 8971SOL    HW228355   2.347   7.237   0.767  0.1538  0.0208 -0.0211
 8972SOL     OW28356   3.816   4.458   1.941  0.0937 -0.0218  0.4845
 8972SOL    HW128357   3.829   4.535   1.886 -0.5977  0.2647  0.7217
 8972SOL    HW228358   3.797   4.493   2.028  1.6096 -0.4651  1.0351
 8973SOL     OW28359   0.440   4.710   1.819  0.6796 -0.4039  0.0399
 8973SOL    HW128360   0.533   4.720   1.836  0.6203 -0.3582  0.3425
 8973SOL    HW228361   0.435   4.658   1.738  0.9913  0.9952 -0.9247
 8974SOL     OW28362   2.825   3.363   4.271 -0.3258  0.1215  0.5408
 8974SOL    HW128363   2.920   3.369   4.268 -0.2714 -0.2179  1.3373
 8974SOL    HW228364   2.797   3.373   4.180  0.4927 -0.1618  0.2521
 8975SOL     OW28365   4.041   5.980   2.837  0.2006  0.1520  0.4514
 8975SOL    HW128366   4.093   6.061   2.833  0.5941 -0.0294  1.5386
 8975SOL    HW228367   3.995   5.978   2.753 -0.2221  1.7818  0.6011
 8976SOL     OW28368   3.007   5.210  11.647  0.0550 -0.0912  0.2836
 8976SOL    HW128369   3.073   5.185  11.712 -0.3704 -0.1070  0.7118
 8976SOL    HW228370   3.052   5.275  11.592  1.4962 -2.3551 -1.4390
 8977SOL     OW28371   2.974   5.379   1.671 -0.7090 -0.1284 -0.0543
 8977SOL    HW128372   2.986   5.389   1.576  0.5478  0.2003  0.1225
 8977SOL    HW228373   2.939   5.291   1.681 -0.4391 -0.3316 -0.8008
 8978SOL     OW28374   1.743   6.929   3.274  0.2138  0.0351  0.0170
 8978SOL    HW128375   1.690   7.008   3.262  0.2561 -0.0380 -0.6951
 8978SOL    HW228376   1.704   6.886   3.351 -0.5672  0.1435 -0.3038
 8979SOL     OW28377   3.189   3.389   1.629  0.1275 -0.1880 -0.1145
 8979SOL    HW128378   3.202   3.298   1.602 -0.2521 -0.2793  0.0063
 8979SOL    HW228379   3.132   3.426   1.561 -1.5194 -0.6425  0.9624
 8980SOL     OW28380   2.972   4.170   2.283  0.8393  0.1946  0.1878
 8980SOL    HW128381   2.969   4.194   2.190 -2.8503  1.0054  0.3575
 8980SOL    HW228382   2.896   4.114   2.295  0.2419  1.4744  3.0279
 8981SOL     OW28383   2.803   3.786  10.234 -0.0333 -0.3313  0.3376
 8981SOL    HW128384   2.775   3.834  10.311  0.6875  0.5025  0.0976
 8981SOL    HW228385   2.860   3.847  10.187  0.7516 -1.3498 -0.0752
 8982SOL     OW28386   1.414   3.395   1.015  0.2201 -0.3066 -0.1952
 8982SOL    HW128387   1.507   3.395   1.039  0.3227 -0.0311 -0.5836
 8982SOL    HW228388   1.377   3.323   1.065  0.7950 -0.9187 -0.6355
 8983SOL     OW28389   4.779   6.073   2.324  0.5154 -0.6658 -0.4183
 8983SOL    HW128390   4.867   6.060   2.360  0.3067 -3.5772 -0.7403
 8983SOL    HW228391   4.787   6.048   2.232 -0.2941  0.8047 -0.9162
 8984SOL     OW28392   1.398   3.412  10.616 -0.3074 -0.5603  0.1265
 8984SOL    HW128393   1.317   3.396  10.568  0.2164 -0.3399 -0.8688
 8984SOL    HW228394   1.426   3.499  10.587  0.6546 -0.9319 -0.0944
 8985SOL     OW28395   3.346   7.018   1.290 -0.2477  0.4782  0.3049
 8985SOL    HW128396   3.282   6.952   1.316 -0.8130  1.3294  1.1259
 8985SOL    HW228397   3.355   7.007   1.195 -2.1865  0.8262  0.0433
 8986SOL     OW28398   4.932   5.447   1.955  0.4106  0.0897  0.1170
 8986SOL    HW128399   5.021   5.416   1.939  0.8191  0.9604  0.6144
 8986SOL    HW228400   4.896   5.385   2.019  0.4726 -0.5564 -0.4633
 8987SOL     OW28401   4.389   6.492   1.477 -0.0961  0.7461  0.1053
 8987SOL    HW128402   4.467   6.475   1.530 -1.7180 -0.4753  2.2189
 8987SOL    HW228403   4.387   6.421   1.414  0.2766  0.5520  0.3076
 8988SOL     OW28404   2.398   4.832   2.516  0.2063 -0.0116 -0.1717
 8988SOL    HW128405   2.369   4.878   2.594 -0.5696  0.4751 -0.7357
 8988SOL    HW228406   2.370   4.888   2.443 -0.9927 -1.4617 -0.8840
 8989SOL     OW28407   1.583   3.609  11.715 -0.2604  0.4218 -0.6269
 8989SOL    HW128408   1.506   3.565  11.751  0.1391  0.0778 -0.1852
 8989SOL    HW228409   1.571   3.605  11.620  0.1414 -1.3330 -0.6266
 8990SOL     OW28410   3.078   4.053   2.006 -0.2978 -0.2360  0.0270
 8990SOL    HW128411   3.111   3.973   2.048  0.3954 -0.0892 -0.2348
 8990SOL    HW228412   3.035   4.022   1.927  0.6920 -0.2942 -0.5073
 8991SOL     OW28413   1.710   5.708  12.034 -0.2159  0.2593 -0.2560
 8991SOL    HW128414   1.737   5.762  12.109  0.8071 -1.1706  0.4565
 8991SOL    HW228415   1.768   5.632  12.037 -1.2790 -0.6523 -1.5166
 8992SOL     OW28416   1.417   5.504   2.916 -0.2920  0.3799  0.3807
 8992SOL    HW128417   1.462   5.431   2.874  0.8686  1.4340 -0.2660
 8992SOL    HW228418   1.384   5.468   2.998  1.5996 -0.4825  0.8104
 8993SOL     OW28419   3.442   3.147   1.818  0.5165  0.8408  0.0104
 8993SOL    HW128420   3.394   3.220   1.858  0.7296 -0.0277  1.9680
 8993SOL    HW228421   3.388   3.070   1.836  1.4959  0.1803  0.1788
 8994SOL     OW28422   2.337   5.716   1.749 -0.2776 -0.6850 -0.3992
 8994SOL    HW128423   2.377   5.643   1.797 -0.6443 -1.0089 -0.5783
 8994SOL    HW228424   2.262   5.742   1.802  0.1953 -0.0453 -0.0399
 8995SOL     OW28425   2.210   6.572   1.496  0.1208 -0.0172  0.3891
 8995SOL    HW128426   2.270   6.643   1.516 -0.5316  0.5736  0.3040
 8995SOL    HW228427   2.129   6.595   1.542 -0.3925 -0.2223 -0.3852
 8996SOL     OW28428   4.227   5.660   1.198  0.4366 -0.1790 -0.6846
 8996SOL    HW128429   4.246   5.583   1.253  0.1234  0.1975 -0.0439
 8996SOL    HW228430   4.132   5.662   1.192  0.4079  0.6790  0.0425
 8997SOL     OW28431   6.267   3.751   1.129  0.1999  0.4770  0.5258
 8997SOL    HW128432   6.359   3.779   1.130  0.3815  0.2038 -1.8822
 8997SOL    HW228433   6.217   3.832   1.130  0.6569  0.9736 -2.9116
 8998SOL     OW28434   2.173   3.401   0.041  0.4161 -0.0647 -0.4179
 8998SOL    HW128435   2.095   3.392   0.096  0.0905  0.3474 -0.8010
 8998SOL    HW228436   2.148   3.365  -0.044 -0.0435  1.8391 -1.1579
 8999SOL     OW28437   1.226   5.559   1.077  0.6465 -0.5485 -0.4530
 8999SOL    HW128438   1.222   5.609   1.158 -2.5857 -0.6512 -0.4351
 8999SOL    HW228439   1.249   5.624   1.010 -0.8010  0.4198 -0.0388
 9000SOL     OW28440   2.395   4.534  12.201 -0.0379  0.2415 -0.7016
 9000SOL    HW128441   2.476   4.487  12.218  0.5949  1.6483  0.4262
 9000SOL    HW228442   2.346   4.528  12.282 -0.2681  0.8828 -0.7850
 9001SOL     OW28443   1.572   4.771   0.137 -0.0749  0.0659 -0.5884
 9001SOL    HW128444   1.583   4.677   0.152 -0.0361  0.0212 -0.9023
 9001SOL    HW228445   1.536   4.803   0.220  1.9348  0.1545  0.3085
 9002SOL     OW28446   3.779   6.433   2.367 -0.8299 -0.0514  0.6901
 9002SOL    HW128447   3.751   6.354   2.321  1.0209 -0.7453  0.6461
 9002SOL    HW228448   3.855   6.463   2.317 -2.2265  2.5347 -0.0616
 9003SOL     OW28449   3.023   4.659   1.691  0.6384 -0.1980 -0.4353
 9003SOL    HW128450   3.055   4.674   1.780  0.0721  1.3930 -0.4524
 9003SOL    HW228451   3.099   4.629   1.642  0.9495 -1.1256  0.5859
 9004SOL     OW28452   3.455   4.534  12.206 -0.0389 -0.0186  0.6227
 9004SOL    HW128453   3.378   4.577  12.245 -0.0245  0.8163 -0.2176
 9004SOL    HW228454   3.529   4.587  12.236  0.1584 -0.4677  0.9428
 9005SOL     OW28455   2.988   5.979   1.254  0.8044  0.0564  0.2598
 9005SOL    HW128456   3.061   5.918   1.262  1.8126  1.4551  2.5700
 9005SOL    HW228457   2.915   5.935   1.298  1.4545  0.3789  1.6903
 9006SOL     OW28458   2.518   4.378  11.678  0.1141 -0.2016 -0.3479
 9006SOL    HW128459   2.578   4.314  11.717  0.5117  0.6210  0.4263
 9006SOL    HW228460   2.572   4.457  11.667  0.2994 -0.6263 -3.4239
 9007SOL     OW28461   2.741   7.160   2.061  0.1608 -0.3726  0.0020
 9007SOL    HW128462   2.702   7.111   1.988 -0.6363  0.4940 -0.1709
 9007SOL    HW228463   2.835   7.159   2.042 -0.1082  0.6303 -1.5617
 9008SOL     OW28464   2.113   2.235   1.744 -0.5830 -0.2237 -0.0849
 9008SOL    HW128465   2.137   2.325   1.763 -1.1964  0.2268 -1.2824
 9008SOL    HW228466   2.105   2.232   1.648 -1.3782 -1.3279 -0.0137
 9009SOL     OW28467   2.641   4.185   1.218  0.0092 -0.2903  0.0004
 9009SOL    HW128468   2.683   4.102   1.195 -0.2227 -0.6200  0.7593
 9009SOL    HW228469   2.670   4.203   1.307 -0.6673 -0.0114  0.1704
 9010SOL     OW28470   0.236   3.347   2.315 -0.5338 -0.0999 -0.2717
 9010SOL    HW128471   0.218   3.322   2.224 -1.1503 -2.2502  0.3819
 9010SOL    HW228472   0.150   3.353   2.357 -0.2284  0.3887  0.3090
 9011SOL     OW28473   1.513   3.985   1.741 -0.6105  0.1977  0.3048
 9011SOL    HW128474   1.607   3.984   1.727 -0.6392  0.4479  0.1009
 9011SOL    HW228475   1.490   3.893   1.753 -0.5544 -0.0115 -1.0390
 9012SOL     OW28476   4.034   5.846   0.902  0.6592 -0.3417 -0.1656
 9012SOL    HW128477   4.077   5.931   0.912  1.1930 -0.4207 -1.5684
 9012SOL    HW228478   4.043   5.805   0.988  1.1406  0.6733  0.2922
 9013SOL     OW28479   1.857   3.532   2.168  0.8330 -0.4777 -0.3086
 9013SOL    HW128480   1.862   3.454   2.223 -0.8653 -1.3871 -1.3485
 9013SOL    HW228481   1.804   3.594   2.219  1.1975 -0.4386  0.0271
 9014SOL     OW28482   3.838   4.198  11.918  0.1804  0.1078  0.4821
 9014SOL    HW128483   3.758   4.179  11.968 -0.0828 -0.4446 -0.1372
 9014SOL    HW228484   3.871   4.112  11.893  0.9645  0.3347  0.7097
 9015SOL     OW28485   3.820   6.275   1.087 -0.3317  0.0446  0.2710
 9015SOL    HW128486   3.747   6.334   1.102 -0.0944  0.4805 -0.2235
 9015SOL    HW228487   3.823   6.219   1.164 -0.9228  0.2997  0.4817
 9016SOL     OW28488   3.492   5.674   0.057 -0.0698  0.3743 -0.4076
 9016SOL    HW128489   3.545   5.726  -0.003  0.7019 -1.3224 -1.2761
 9016SOL    HW228490   3.422   5.638   0.002  0.8362 -1.4740 -0.4364
 9017SOL     OW28491   3.915   4.711   1.282  0.1282 -0.1828  0.7338
 9017SOL    HW128492   3.866   4.792   1.296 -1.1156 -0.7516 -0.2182
 9017SOL    HW228493   3.850   4.641   1.289  0.9557 -1.0259  0.3280
 9018SOL     OW28494   4.122   3.565   0.294 -0.3007 -0.5847  0.3688
 9018SOL    HW128495   4.027   3.562   0.295 -0.2916 -0.8547  1.3581
 9018SOL    HW228496   4.145   3.624   0.366  0.2454  1.2325 -1.2088
 9019SOL     OW28497   1.754   3.367   2.568 -0.2455  0.3056  0.0945
 9019SOL    HW128498   1.728   3.447   2.614  1.1026  1.5706 -1.2218
 9019SOL    HW228499   1.847   3.379   2.549  0.2106 -1.9845  0.5944
 9020SOL     OW28500   2.637   2.716   0.045 -0.0478  0.4361 -0.0460
 9020SOL    HW128501   2.641   2.811   0.055 -1.1275  0.5500 -0.5516
 9020SOL    HW228502   2.545   2.694   0.061  0.0938 -0.4682 -0.4078
 9021SOL     OW28503   1.995   3.565  10.415  0.1651 -0.0928 -0.1809
 9021SOL    HW128504   2.006   3.624  10.341  1.4190 -0.5852 -0.4210
 9021SOL    HW228505   1.911   3.522  10.400  0.9881 -1.1765 -2.0934
 9022SOL     OW28506   0.847   6.853  11.032 -0.2100 -0.0437 -0.1021
 9022SOL    HW128507   0.818   6.775  10.984 -0.4396 -0.2333  0.3372
 9022SOL    HW228508   0.932   6.828  11.070  0.6225  0.5565 -1.4987
 9023SOL     OW28509   2.622   5.487   0.884 -0.7003  0.1417 -0.1135
 9023SOL    HW128510   2.572   5.424   0.935  0.9148  0.5854  2.1574
 9023SOL    HW228511   2.573   5.569   0.893 -0.8572  0.0372 -0.0037
 9024SOL     OW28512   3.504   3.522   0.809 -0.0673  0.4532 -0.4984
 9024SOL    HW128513   3.558   3.596   0.838  1.2953 -0.7937  0.2714
 9024SOL    HW228514   3.492   3.538   0.715  0.6931  1.3592 -0.4643
 9025SOL     OW28515   2.935   3.864  11.195  0.1012  0.1891 -0.0681
 9025SOL    HW128516   2.856   3.852  11.248 -0.4772  1.0354 -0.7071
 9025SOL    HW228517   3.002   3.894  11.258 -0.5321  1.0407  0.2189
 9026SOL     OW28518   2.047   4.640   2.163 -0.5719  0.8930 -0.4112
 9026SOL    HW128519   2.018   4.722   2.124 -0.9265  1.0505  0.1663
 9026SOL    HW228520   1.971   4.582   2.159 -0.4083  0.6889 -0.5651
 9027SOL     OW28521   2.768   5.184   1.175 -0.1478 -0.0393  0.2219
 9027SOL    HW128522   2.725   5.100   1.190  0.5123 -0.3920  0.1910
 9027SOL    HW228523   2.708   5.232   1.119  0.5191 -1.4046 -1.7749
 9028SOL     OW28524   3.422   4.584  11.429  0.5133 -0.1899 -0.0067
 9028SOL    HW128525   3.416   4.612  11.338  0.6535  1.2873  0.4147
 9028SOL    HW228526   3.425   4.665  11.479 -1.4504 -0.9363  1.4537
 9029SOL     OW28527   2.111   4.474   0.960  0.0902 -0.5296 -0.4440
 9029SOL    HW128528   2.049   4.424   0.907 -0.9035  1.2959 -1.0733
 9029SOL    HW228529   2.177   4.504   0.898 -0.2605  0.3523 -0.4113
 9030SOL     OW28530   1.716   3.891   2.666  0.3521  0.5342  0.9339
 9030SOL    HW128531   1.710   3.924   2.755 -1.9605  1.1678  0.6114
 9030SOL    HW228532   1.720   3.970   2.612 -1.7271  0.2834  0.3358
 9031SOL     OW28533   0.385   3.739   2.330 -0.4332 -0.1459  0.3116
 9031SOL    HW128534   0.297   3.731   2.367 -0.3413 -0.4539  0.4741
 9031SOL    HW228535   0.440   3.687   2.390 -0.3078 -0.7989 -0.3603
 9032SOL     OW28536   2.215   3.970   0.088 -0.0608 -0.2995  0.2143
 9032SOL    HW128537   2.254   4.050   0.124 -0.4573  0.4637 -0.9709
 9032SOL    HW228538   2.214   3.908   0.161  2.2655  0.0333  0.5943
 9033SOL     OW28539   2.171   5.045   0.644 -0.6242  0.5563 -0.2139
 9033SOL    HW128540   2.112   5.120   0.648  0.6074  1.7223 -2.4380
 9033SOL    HW228541   2.176   5.023   0.551  1.3364 -0.4034  0.0656
 9034SOL     OW28542   3.778   6.564   3.367 -0.2782  0.0765  0.4859
 9034SOL    HW128543   3.856   6.531   3.321 -0.9904 -1.2384  0.1592
 9034SOL    HW228544   3.765   6.652   3.333  1.1383  0.3793  0.6544
 9035SOL     OW28545   3.144   4.564   0.708  0.1075 -0.6052 -0.0761
 9035SOL    HW128546   3.182   4.628   0.649  0.2831  1.7633  2.3909
 9035SOL    HW228547   3.151   4.480   0.662  1.1626  0.9160 -2.8718
 9036SOL     OW28548   3.122   5.852   2.169 -0.2840 -0.0279 -0.3909
 9036SOL    HW128549   3.101   5.946   2.171 -0.0118  0.0390  1.4544
 9036SOL    HW228550   3.076   5.816   2.245  0.5047 -1.1735 -0.4390
 9037SOL     OW28551   3.270   1.783  12.242  0.1409 -0.0443 -0.1177
 9037SOL    HW128552   3.344   1.844  12.246  0.2883 -0.2803  1.2013
 9037SOL    HW228553   3.304   1.708  12.193  0.3442  0.4132 -0.6890
 9038SOL     OW28554   4.308   2.886  11.907 -0.9296 -0.7572  0.1153
 9038SOL    HW128555   4.301   2.886  12.002 -1.5753  0.9638  0.1054
 9038SOL    HW228556   4.274   2.972  11.880  0.4020 -0.7100 -1.5778
 9039SOL     OW28557   2.000   3.054  10.114 -0.5025 -0.3537  0.4113
 9039SOL    HW128558   1.916   3.044  10.069  0.1325 -1.3695 -0.5843
 9039SOL    HW228559   2.054   2.984  10.080  1.3231  1.2807 -0.2236
 9040SOL     OW28560   2.381   4.864   0.714 -0.1710 -0.3724  0.5612
 9040SOL    HW128561   2.320   4.925   0.674 -0.3651  0.2456  1.7787
 9040SOL    HW228562   2.467   4.905   0.704  0.0667 -1.1522 -0.9756
 9041SOL     OW28563   3.366   3.553   2.036 -0.3483  0.0536 -0.3920
 9041SOL    HW128564   3.346   3.460   2.028 -1.2425  0.2819 -0.9559
 9041SOL    HW228565   3.443   3.566   1.981  0.6692 -0.6097  0.8272
 9042SOL     OW28566   3.434   5.029  12.075 -0.1419 -0.4215  0.0220
 9042SOL    HW128567   3.507   5.090  12.069 -1.3918  1.3392  1.4059
 9042SOL    HW228568   3.377   5.052  12.001 -0.1919 -0.5161  0.0308
 9043SOL     OW28569   3.453   7.285   1.268 -0.1008  0.2912  0.5954
 9043SOL    HW128570   3.401   7.330   1.334  0.0668  0.2333  0.7685
 9043SOL    HW228571   3.433   7.192   1.281 -0.9069  0.3463 -0.1518
 9044SOL     OW28572   7.382   5.777   1.019  0.0871 -0.4251 -0.0170
 9044SOL    HW128573   7.453   5.841   1.017 -0.9789  0.8088 -0.2919
 9044SOL    HW228574   7.399   5.718   0.946 -1.2696  2.2967 -2.7722
 9045SOL     OW28575   1.695   3.088   3.686  0.4880  0.1798  0.4165
 9045SOL    HW128576   1.712   3.071   3.779  0.3198  0.4412  0.4986
 9045SOL    HW228577   1.760   3.035   3.640  1.2220  0.7991  0.7071
 9046SOL     OW28578   1.074   5.991   3.500 -0.1901 -0.1356 -0.3355
 9046SOL    HW128579   1.098   5.978   3.591 -0.3950 -1.9978 -0.5027
 9046SOL    HW228580   1.127   5.927   3.452 -0.5002  0.4201 -1.4619
 9047SOL     OW28581   3.352   5.017   2.808 -0.6433  0.0813  0.0666
 9047SOL    HW128582   3.430   4.973   2.774 -0.9914  0.0519 -0.7217
 9047SOL    HW228583   3.385   5.077   2.874  0.3961  1.9756 -2.0361
 9048SOL     OW28584   3.538   3.333   2.478 -0.2706  0.6180  1.0989
 9048SOL    HW128585   3.444   3.317   2.466 -0.1452  0.3218  0.4651
 9048SOL    HW228586   3.543   3.424   2.506 -0.7364  0.6953  0.9467
 9049SOL     OW28587   1.803   4.257   2.620  0.3424 -0.1661 -0.4577
 9049SOL    HW128588   1.868   4.246   2.690  0.7899 -1.2230 -1.0122
 9049SOL    HW228589   1.754   4.335   2.645  1.8860  0.7307 -0.0679
 9050SOL     OW28590   4.086   3.682   1.728  0.2964  0.3117 -0.1488
 9050SOL    HW128591   4.041   3.604   1.697  2.7847 -0.5852 -1.7079
 9050SOL    HW228592   4.033   3.755   1.695  0.1914 -0.6912 -2.3388
 9051SOL     OW28593   2.805   4.887   3.681  0.0411  0.4151  0.2948
 9051SOL    HW128594   2.711   4.896   3.668  0.0064 -0.9562 -0.6178
 9051SOL    HW228595   2.815   4.867   3.774 -0.6018  0.1660  0.3135
 9052SOL     OW28596   3.904   4.402   3.497  0.5628  0.2101 -0.3678
 9052SOL    HW128597   3.889   4.413   3.591 -0.5211  0.5913 -0.5698
 9052SOL    HW228598   3.960   4.325   3.491  1.0167  0.4505  0.6123
 9053SOL     OW28599   3.016   5.667   1.969 -0.7592  0.1153 -0.2836
 9053SOL    HW128600   2.957   5.600   2.001 -0.2696 -0.0224  0.3506
 9053SOL    HW228601   3.033   5.723   2.045  0.6514 -0.3884 -0.2008
 9054SOL     OW28602   2.601   3.932   3.890 -0.1945 -0.0782  0.2067
 9054SOL    HW128603   2.676   3.941   3.949 -0.3780 -1.2360  0.6362
 9054SOL    HW228604   2.640   3.918   3.804  0.1019 -1.2896  0.5229
 9055SOL     OW28605   1.654   5.473   2.313 -0.3302  0.2523  0.2452
 9055SOL    HW128606   1.655   5.567   2.330 -1.5596  0.6572 -1.6993
 9055SOL    HW228607   1.568   5.455   2.275 -0.0027 -1.6131  0.2635
 9056SOL     OW28608   4.891   6.250   4.103 -0.0870 -0.1141  0.5256
 9056SOL    HW128609   4.808   6.271   4.145 -0.1051  0.5684  0.1677
 9056SOL    HW228610   4.867   6.193   4.030 -0.6426  2.4229 -1.4149
 9057SOL     OW28611   2.395   2.735   3.899  0.1819 -0.1157 -0.3792
 9057SOL    HW128612   2.335   2.711   3.829 -0.4483 -1.3648  0.5562
 9057SOL    HW228613   2.379   2.828   3.914 -0.4601 -0.1021 -1.1373
 9058SOL     OW28614   5.675   4.050   3.176 -0.0977  0.1025  0.1802
 9058SOL    HW128615   5.662   4.126   3.232 -1.4711 -0.0512  0.1140
 9058SOL    HW228616   5.735   3.993   3.224  0.8698  1.1768  0.2644
 9059SOL     OW28617   3.648   6.413   3.092  0.7999 -0.5107  0.4765
 9059SOL    HW128618   3.677   6.503   3.078 -0.8720 -0.1187 -0.7524
 9059SOL    HW228619   3.554   6.421   3.110  0.2640 -2.1057 -1.2978
 9060SOL     OW28620   2.823   3.976   4.065 -0.7063  0.0267  0.4560
 9060SOL    HW128621   2.872   3.941   4.139 -0.5818 -0.8169 -0.0052
 9060SOL    HW228622   2.883   3.966   3.990 -1.1734 -0.0050  0.0813
 9061SOL     OW28623   1.328   5.416   2.432 -0.0896 -0.3646 -0.0558
 9061SOL    HW128624   1.361   5.492   2.385  1.2759 -0.2410  1.0627
 9061SOL    HW228625   1.339   5.343   2.370 -0.9250  0.2325 -0.9366
 9062SOL     OW28626   0.105   5.316   2.758  0.0508 -0.0917  0.0407
 9062SOL    HW128627   0.019   5.354   2.742  0.2491 -0.4830 -2.3711
 9062SOL    HW228628   0.087   5.228   2.788 -0.4842 -0.8503 -2.2821
 9063SOL     OW28629   1.367   5.081   3.110 -0.1518  0.0395 -0.3889
 9063SOL    HW128630   1.463   5.082   3.111 -0.0839  2.3435 -1.5222
 9063SOL    HW228631   1.342   5.085   3.202  0.7858 -1.2529 -0.0411
 9064SOL     OW28632   3.808   5.833   1.898 -0.3098 -0.1308 -0.2069
 9064SOL    HW128633   3.810   5.849   1.992  2.9832 -1.5111  0.0995
 9064SOL    HW228634   3.857   5.907   1.860  1.1598 -1.1815 -0.4352
 9065SOL     OW28635   1.677   4.822   2.901  0.1305 -0.0195  0.3022
 9065SOL    HW128636   1.720   4.885   2.843 -0.1347  1.0995  1.2613
 9065SOL    HW228637   1.745   4.797   2.964 -0.1662  0.4823  0.8294
 9066SOL     OW28638   6.712   7.846   2.472  0.1190  0.0426  0.7933
 9066SOL    HW128639   6.724   7.752   2.489  3.0073  0.1829  0.0219
 9066SOL    HW228640   6.742   7.888   2.553  0.9242  0.3152  0.3694
 9067SOL     OW28641   2.470   5.368   2.113 -0.2397 -0.1962 -0.1619
 9067SOL    HW128642   2.389   5.355   2.161 -0.1202  0.2434  0.1553
 9067SOL    HW228643   2.464   5.456   2.077  1.0210  0.6922  1.6625
 9068SOL     OW28644   3.984   4.345   2.592  0.3464  0.2264 -0.2153
 9068SOL    HW128645   3.946   4.426   2.558  2.1054  1.8250  1.3928
 9068SOL    HW228646   4.040   4.373   2.664  0.5155 -2.5241  0.8284
 9069SOL     OW28647   4.735   3.415   2.620  0.7508  0.5519  0.4244
 9069SOL    HW128648   4.654   3.457   2.592  1.5861  1.2417 -1.1184
 9069SOL    HW228649   4.754   3.452   2.706 -0.4607  0.5102  0.7222
 9070SOL     OW28650   2.585   5.494   4.015  0.0462  0.1584 -0.0279
 9070SOL    HW128651   2.677   5.483   4.037 -0.2136 -0.1551  0.9628
 9070SOL    HW228652   2.572   5.440   3.938  0.7401  0.3944 -0.3186
 9071SOL     OW28653   2.142   6.233   2.564  0.2089  0.7221 -0.2684
 9071SOL    HW128654   2.176   6.300   2.505  1.8493  0.0493 -0.1622
 9071SOL    HW228655   2.198   6.157   2.547  0.4843  0.3948  1.8663
 9072SOL     OW28656   1.433   3.060   2.252  0.3468  0.0972  0.2730
 9072SOL    HW128657   1.377   3.079   2.327  0.8967  2.4363  0.1710
 9072SOL    HW228658   1.520   3.090   2.279  0.8532 -0.3764 -0.7761
 9073SOL     OW28659   1.092   3.948   3.231  0.4099 -0.4617  0.2390
 9073SOL    HW128660   1.052   3.889   3.294  1.3505 -2.1160 -0.6377
 9073SOL    HW228661   1.022   3.968   3.169  0.1360 -0.8260  0.4278
 9074SOL     OW28662   3.186   4.870   2.287 -0.0806  0.3467 -0.8622
 9074SOL    HW128663   3.098   4.871   2.249 -2.0634 -0.8068  3.1462
 9074SOL    HW228664   3.181   4.929   2.362  2.5096  0.0443 -0.3391
 9075SOL     OW28665   4.027   3.500   2.537 -0.3898  0.3630 -0.6447
 9075SOL    HW128666   4.002   3.444   2.463 -0.1960 -1.3979  0.5719
 9075SOL    HW228667   4.117   3.475   2.557 -0.3514  0.9975  0.0145
 9076SOL     OW28668   4.571   5.195   3.237  0.6207  0.1842 -0.8488
 9076SOL    HW128669   4.478   5.207   3.218  0.5684  0.0128 -0.7073
 9076SOL    HW228670   4.576   5.109   3.280  1.0942 -0.7255 -2.6250
 9077SOL     OW28671   2.056   3.089   3.816 -0.7935 -0.4255  0.6615
 9077SOL    HW128672   1.962   3.070   3.822 -0.6195 -1.5512  0.1868
 9077SOL    HW228673   2.098   3.005   3.836  0.0568 -0.5698 -1.4965
 9078SOL     OW28674   3.287   4.985   3.842 -0.0642  0.0648  0.0955
 9078SOL    HW128675   3.349   4.918   3.870 -0.0312  0.6311  1.4918
 9078SOL    HW228676   3.223   4.989   3.914 -0.0269  1.5527  0.0842
 9079SOL     OW28677   1.768   5.505   1.805 -0.4008  0.4158 -0.3600
 9079SOL    HW128678   1.731   5.538   1.724  0.0123  0.0605 -0.6977
 9079SOL    HW228679   1.846   5.457   1.778  0.1410  0.9040  0.3092
 9080SOL     OW28680   1.476   4.516   2.042  0.2058  1.1428 -0.3200
 9080SOL    HW128681   1.484   4.469   2.124  0.6274  1.7900  0.0193
 9080SOL    HW228682   1.382   4.515   2.022  0.1884  0.3027 -0.2489
 9081SOL     OW28683   3.848   5.026   2.319  0.3174  1.0282 -0.4142
 9081SOL    HW128684   3.754   5.023   2.333  0.2847  1.1701 -0.6028
 9081SOL    HW228685   3.868   4.943   2.275  0.4715  0.4217  0.7497
 9082SOL     OW28686   2.472   3.816   2.588 -0.2132  0.5919 -0.7730
 9082SOL    HW128687   2.563   3.839   2.568  0.0942  0.2014  0.1157
 9082SOL    HW228688   2.464   3.832   2.682 -0.9537  0.2498 -0.7712
 9083SOL     OW28689   1.008   3.770   3.459  0.0812 -0.0551 -0.2953
 9083SOL    HW128690   1.102   3.753   3.465  0.1197  0.0435 -0.5912
 9083SOL    HW228691   0.976   3.766   3.549  0.2369 -0.8325 -0.2717
 9084SOL     OW28692   2.216   4.483   3.963  0.0049 -0.4774  0.6136
 9084SOL    HW128693   2.303   4.443   3.960 -0.5056 -1.6250  0.1899
 9084SOL    HW228694   2.167   4.438   3.894 -0.8523  0.3267  0.6818
 9085SOL     OW28695   2.934   4.461   4.016 -0.5966 -0.3905 -0.1625
 9085SOL    HW128696   2.991   4.475   4.091 -0.8165  1.5867 -0.3196
 9085SOL    HW228697   2.980   4.395   3.963  0.4119 -0.5070  0.8273
 9086SOL     OW28698   1.325   4.790   3.695 -1.1358 -0.2885  0.0749
 9086SOL    HW128699   1.373   4.826   3.769 -0.0641 -0.6780 -0.4013
 9086SOL    HW228700   1.240   4.833   3.698 -1.4757 -0.9795  2.0795
 9087SOL     OW28701   1.138   3.335   4.270 -0.3108  0.3598  0.7507
 9087SOL    HW128702   1.050   3.365   4.251 -0.8201 -0.7231  1.3015
 9087SOL    HW228703   1.133   3.300   4.359  0.4528 -0.4866  0.4767
 9088SOL     OW28704   0.853   4.856   3.508 -0.2770 -0.8117 -0.2493
 9088SOL    HW128705   0.900   4.849   3.425  0.8020  0.6377  0.1842
 9088SOL    HW228706   0.916   4.826   3.573 -0.5764 -0.5285  0.1741
 9089SOL     OW28707   1.640   3.284   4.376 -0.1072  0.5320  0.1794
 9089SOL    HW128708   1.694   3.361   4.356  0.6628 -0.2604 -0.9076
 9089SOL    HW228709   1.685   3.241   4.449  0.7652 -0.1162 -0.7108
 9090SOL     OW28710   3.846   4.354   3.210 -0.3715  0.4067 -0.0552
 9090SOL    HW128711   3.865   4.266   3.242 -1.0911 -0.2334 -1.3121
 9090SOL    HW228712   3.850   4.409   3.288 -0.4426 -0.8166  0.8466
 9091SOL     OW28713   3.644   3.527   1.339  0.4276  0.4618  0.2676
 9091SOL    HW128714   3.667   3.618   1.357 -1.1333  1.2004 -1.1977
 9091SOL    HW228715   3.548   3.528   1.328 -0.3078 -2.0513  4.2057
 9092SOL     OW28716   2.973   3.273   1.180 -0.0574  0.3513 -0.0391
 9092SOL    HW128717   3.025   3.194   1.192 -0.2008  0.4349  1.3550
 9092SOL    HW228718   2.885   3.249   1.209 -0.0367  1.0814  0.6786
 9093SOL     OW28719   3.548   5.615   2.825 -0.5679  0.3000  0.2691
 9093SOL    HW128720   3.604   5.541   2.849  0.1874  1.1287  1.1660
 9093SOL    HW228721   3.461   5.578   2.817 -0.1520 -0.7354  0.4137
 9094SOL     OW28722   1.661   7.433   3.884 -0.4613  0.0223  0.3571
 9094SOL    HW128723   1.690   7.518   3.851 -0.0211 -0.0608  0.5378
 9094SOL    HW228724   1.703   7.423   3.969 -0.1451 -0.5761  0.1431
 9095SOL     OW28725   4.847   5.300   3.454 -0.4634  0.5141  0.0368
 9095SOL    HW128726   4.764   5.315   3.499 -0.4170 -1.5296  0.9000
 9095SOL    HW228727   4.907   5.363   3.494 -1.0807  0.5444  0.9454
 9096SOL     OW28728   5.069   5.700   4.565  0.5351  0.4525  0.4109
 9096SOL    HW128729   5.131   5.771   4.551  0.1530  0.5247 -1.1569
 9096SOL    HW228730   5.059   5.659   4.478 -0.1282 -0.7803  1.0339
 9097SOL     OW28731   2.173   3.488   1.867  0.1307  0.3061 -0.6137
 9097SOL    HW128732   2.083   3.463   1.887  0.0880 -0.4283 -1.7056
 9097SOL    HW228733   2.227   3.433   1.924 -0.1113  1.2926  0.6111
 9098SOL     OW28734   4.564   4.381   3.174  0.2790  0.1312  0.2038
 9098SOL    HW128735   4.564   4.441   3.249 -0.2698 -0.5405  0.7636
 9098SOL    HW228736   4.631   4.316   3.196  1.0891  0.6887 -0.5436
 9099SOL     OW28737   1.910   5.767   3.112  0.5493  1.0295  0.4515
 9099SOL    HW128738   1.905   5.771   3.017  0.0074  0.3719  0.4391
 9099SOL    HW228739   1.820   5.750   3.140  0.7862  0.7085  1.0473
 9100SOL     OW28740   3.950   4.963   1.474 -0.2544  0.4730 -0.0240
 9100SOL    HW128741   4.025   4.948   1.531 -0.0369  0.8587 -0.2041
 9100SOL    HW228742   3.986   5.009   1.398 -0.4546 -0.4656 -0.6990
 9101SOL     OW28743   2.484   4.003   3.135 -0.2218 -0.3939 -0.5383
 9101SOL    HW128744   2.559   4.060   3.119 -0.1130 -0.5232 -0.4828
 9101SOL    HW228745   2.521   3.915   3.140 -0.6126 -0.7478 -2.7662
 9102SOL     OW28746   2.879   4.959   1.880  0.1659 -0.3728 -0.7153
 9102SOL    HW128747   2.790   4.994   1.878  0.2415  0.8596  4.1327
 9102SOL    HW228748   2.929   5.015   1.820 -1.7962  0.5809 -1.5306
 9103SOL     OW28749   3.284   6.263   3.315  0.1374 -0.1273  0.4727
 9103SOL    HW128750   3.222   6.220   3.256 -0.4016  1.2230  0.0374
 9103SOL    HW228751   3.331   6.190   3.357 -0.1348 -1.1241 -0.8937
 9104SOL     OW28752   3.561   2.122   2.404 -0.3861  0.6066 -0.0770
 9104SOL    HW128753   3.491   2.148   2.464 -1.9372  0.2313 -1.6642
 9104SOL    HW228754   3.588   2.203   2.362 -0.0394  0.7030  0.3146
 9105SOL     OW28755   2.691   5.205   2.116  0.0328 -0.3577 -0.0666
 9105SOL    HW128756   2.665   5.115   2.095  0.8207 -0.5513 -0.2531
 9105SOL    HW228757   2.612   5.257   2.104 -0.6761 -1.1659  0.9821
 9106SOL     OW28758   2.480   5.004   3.082 -0.1683 -0.5756 -0.3939
 9106SOL    HW128759   2.443   5.051   3.157  1.2542 -2.4803  1.6224
 9106SOL    HW228760   2.418   4.933   3.067  1.1863 -2.1876  1.2536
 9107SOL     OW28761   2.430   3.362   1.561 -0.0313 -0.2251  0.2075
 9107SOL    HW128762   2.406   3.371   1.469 -1.6254 -1.1993  0.4830
 9107SOL    HW228763   2.363   3.413   1.608  2.3115  2.6069  0.7793
 9108SOL     OW28764   3.657   3.918   3.798 -0.3447  0.0655  0.4860
 9108SOL    HW128765   3.628   3.966   3.720 -0.0429 -0.0386  0.3094
 9108SOL    HW228766   3.650   3.826   3.774 -2.3051 -0.0409  1.3122
 9109SOL     OW28767   2.709   3.192   2.058  0.1225  0.1766 -0.1224
 9109SOL    HW128768   2.755   3.265   2.018 -0.6549  0.7905  0.0821
 9109SOL    HW228769   2.770   3.158   2.123  0.0247  1.4459  0.6712
 9110SOL     OW28770   2.182   2.648   3.724 -0.2458 -0.6926 -0.2026
 9110SOL    HW128771   2.103   2.647   3.669  0.8058 -0.0193 -1.8084
 9110SOL    HW228772   2.185   2.562   3.764 -2.3763 -0.3668  0.7916
 9111SOL     OW28773   3.615   5.752   3.619  0.2079 -0.1714 -0.3103
 9111SOL    HW128774   3.587   5.772   3.708 -0.8742  1.1850 -0.9187
 9111SOL    HW228775   3.710   5.737   3.626 -0.0075 -1.0417  1.1896
 9112SOL     OW28776   2.126   6.206   3.195  0.0294 -0.4149 -0.3646
 9112SOL    HW128777   2.115   6.169   3.282  1.3641 -1.3834 -0.5800
 9112SOL    HW228778   2.078   6.146   3.137 -0.6855  0.1150 -0.3352
 9113SOL     OW28779   4.560   6.144   3.365  0.7089  0.6718 -0.4291
 9113SOL    HW128780   4.566   6.227   3.411  0.6106 -1.1372  3.1692
 9113SOL    HW228781   4.476   6.107   3.393  1.5280 -1.3659 -0.5079
 9114SOL     OW28782   1.061   3.075   3.225 -0.0954  0.3544  1.0273
 9114SOL    HW128783   1.057   3.016   3.300 -0.0225  0.3809  1.0522
 9114SOL    HW228784   1.150   3.066   3.192  0.2219  1.1498  1.6044
 9115SOL     OW28785   3.081   4.274   1.387  0.1921  0.1481 -0.0176
 9115SOL    HW128786   3.006   4.299   1.441 -0.8031  1.1157 -1.7584
 9115SOL    HW228787   3.057   4.189   1.350 -1.2162  1.4638 -2.4236
 9116SOL     OW28788   2.993   4.971   3.468  0.1721 -0.0599 -0.0928
 9116SOL    HW128789   3.081   4.947   3.495  0.4395 -0.3476 -1.1529
 9116SOL    HW228790   2.936   4.936   3.536  0.9812  1.8454  1.6676
 9117SOL     OW28791   2.968   4.253   1.731  0.1003 -0.8368  0.4010
 9117SOL    HW128792   2.945   4.307   1.655  0.2468 -2.5956 -0.9387
 9117SOL    HW228793   3.006   4.315   1.793  0.0281  0.6430 -0.9681
 9118SOL     OW28794   1.395   3.858   2.227  0.4296 -0.2426 -0.3181
 9118SOL    HW128795   1.472   3.817   2.188  1.1205 -2.7246  3.1419
 9118SOL    HW228796   1.355   3.789   2.280 -1.2393  2.3221  2.0485
 9119SOL     OW28797   3.259   4.555   1.584  0.3902 -0.1110 -0.5119
 9119SOL    HW128798   3.321   4.624   1.609  1.2033 -0.8445 -0.4716
 9119SOL    HW228799   3.278   4.539   1.491  2.1495 -2.1995  0.1270
 9120SOL     OW28800   2.746   7.652   1.625 -0.2114  0.1963  0.5776
 9120SOL    HW128801   2.672   7.713   1.615 -0.1100  0.4730  1.4607
 9120SOL    HW228802   2.805   7.696   1.686  0.5605 -0.1514  0.0925
 9121SOL     OW28803   2.051   5.270   2.730 -0.0317  0.0627 -0.1709
 9121SOL    HW128804   2.073   5.342   2.672  1.3103 -0.2794 -0.1250
 9121SOL    HW228805   2.071   5.302   2.817 -0.5835  0.0482 -0.0374
 9122SOL     OW28806   0.811   6.474   1.714  0.2335 -0.1529  0.5196
 9122SOL    HW128807   0.778   6.385   1.703 -1.4083  0.2666  1.6231
 9122SOL    HW228808   0.903   6.463   1.738  0.0771 -1.5416  0.5832
 9123SOL     OW28809   2.387   5.225   2.771 -0.2663 -0.1793  0.0148
 9123SOL    HW128810   2.429   5.294   2.822  0.1095 -0.7927  0.5537
 9123SOL    HW228811   2.364   5.267   2.688  1.0968  0.2674 -0.1622
 9124SOL     OW28812   2.963   3.314   2.039 -0.7321 -0.6021  0.5978
 9124SOL    HW128813   2.964   3.256   2.114 -0.0951 -1.1928  0.1458
 9124SOL    HW228814   2.951   3.401   2.076 -0.9295 -0.9356  1.3395
 9125SOL     OW28815   0.175   5.547   3.358 -0.4317 -1.0466 -0.3079
 9125SOL    HW128816   0.126   5.538   3.440  0.0412 -2.8024 -0.1765
 9125SOL    HW228817   0.263   5.574   3.385 -1.2463  2.2812 -0.5545
 9126SOL     OW28818   3.423   4.755   2.250  0.4124 -0.1669 -0.4394
 9126SOL    HW128819   3.334   4.790   2.245  0.7322  0.8132  0.5287
 9126SOL    HW228820   3.411   4.660   2.253 -0.4719 -0.2487 -3.2773
 9127SOL     OW28821   3.282   4.887   3.450  0.3679 -0.6441  0.1887
 9127SOL    HW128822   3.279   4.843   3.534 -1.4439  1.2571  1.2278
 9127SOL    HW228823   3.345   4.957   3.461  1.0063 -1.1009 -0.4563
 9128SOL     OW28824   4.066   4.024   1.558 -0.6400  0.3553 -0.6089
 9128SOL    HW128825   4.069   4.092   1.626  1.4535 -0.6142  0.3873
 9128SOL    HW228826   3.980   3.984   1.568 -0.9873  1.2891  0.3975
 9129SOL     OW28827   2.953   6.222   2.421 -0.1592 -0.1953 -0.1972
 9129SOL    HW128828   3.001   6.298   2.456 -1.1069  0.7329 -0.8393
 9129SOL    HW228829   2.874   6.260   2.383 -0.7816 -1.5586 -0.2979
 9130SOL     OW28830   2.098   3.929   2.679  0.0027 -0.6105  0.1861
 9130SOL    HW128831   2.129   3.961   2.764  0.1490 -1.3021  0.3979
 9130SOL    HW228832   2.122   3.836   2.678 -2.1468 -1.2338  0.4208
 9131SOL     OW28833   4.587   5.296   3.502 -0.2840 -0.1238  0.1443
 9131SOL    HW128834   4.605   5.285   3.408 -2.1081 -1.6190 -0.0838
 9131SOL    HW228835   4.519   5.364   3.505  0.1443  0.2994  0.4428
 9132SOL     OW28836   1.267   3.152   2.493  0.1776 -0.1235  0.1259
 9132SOL    HW128837   1.339   3.213   2.509 -0.5616  0.6774  0.4416
 9132SOL    HW228838   1.189   3.207   2.488 -0.2024 -0.7718 -2.1271
 9133SOL     OW28839   4.652   5.275   3.769  0.5351  0.6015  0.1766
 9133SOL    HW128840   4.575   5.260   3.824  0.7263 -0.8622  0.0847
 9133SOL    HW228841   4.626   5.245   3.682  1.7597 -1.7772  0.5337
 9134SOL     OW28842   3.508   5.223   3.879 -0.2558 -0.1247  0.7492
 9134SOL    HW128843   3.476   5.156   3.819 -0.1713 -0.2629  0.8584
 9134SOL    HW228844   3.588   5.186   3.916 -0.8936 -0.5273  1.7966
 9135SOL     OW28845   3.936   4.819   3.662  0.2347 -0.7322  0.3500
 9135SOL    HW128846   4.006   4.882   3.678 -0.9306  0.2451  1.9102
 9135SOL    HW228847   3.930   4.768   3.743 -0.6702 -0.9678  0.1511
 9136SOL     OW28848   2.480   3.682   1.649 -0.2472  0.3471  0.5256
 9136SOL    HW128849   2.493   3.774   1.625 -0.1240  0.2260  0.1202
 9136SOL    HW228850   2.393   3.661   1.618 -0.3073  0.3478  0.6915
 9137SOL     OW28851   2.101   4.654   3.441 -0.4280  0.2333 -0.1624
 9137SOL    HW128852   2.161   4.584   3.467  0.2464  0.0166 -2.0875
 9137SOL    HW228853   2.157   4.732   3.435 -0.8108  0.5393  0.2706
 9138SOL     OW28854   2.434   5.118   4.684 -0.0481 -0.2805  0.4168
 9138SOL    HW128855   2.488   5.054   4.638 -1.5634 -0.4434 -1.2471
 9138SOL    HW228856   2.352   5.120   4.635  0.0733  3.2649  0.0570
 9139SOL     OW28857   0.822   4.056   2.613  0.1303  0.1429 -0.3353
 9139SOL    HW128858   0.808   4.069   2.519  0.9084 -0.0910 -0.4887
 9139SOL    HW228859   0.877   4.130   2.639 -0.0823  0.2047 -0.0597
 9140SOL     OW28860   1.855   4.503   3.069 -0.0885 -0.5150 -0.3543
 9140SOL    HW128861   1.840   4.521   3.161 -0.3128 -2.0680 -0.0589
 9140SOL    HW228862   1.906   4.577   3.038  2.1256 -1.1020  1.6121
 9141SOL     OW28863   4.379   5.575   3.456  0.9573 -0.3988 -0.0818
 9141SOL    HW128864   4.406   5.667   3.458  1.4407 -0.4978 -1.2298
 9141SOL    HW228865   4.315   5.568   3.527  1.8073  0.5224  0.8207
 9142SOL     OW28866   7.342   5.181   3.056  0.5306 -0.0334 -0.2510
 9142SOL    HW128867   7.433   5.159   3.078  0.8978  0.3697 -1.2991
 9142SOL    HW228868   7.290   5.126   3.115  1.4293  1.0436  1.6428
 9143SOL     OW28869   1.472   2.782   2.851 -0.2019 -0.3879  0.0182
 9143SOL    HW128870   1.538   2.798   2.918  0.2580 -0.4326 -0.4213
 9143SOL    HW228871   1.512   2.813   2.769 -1.4899  1.5363  0.0393
 9144SOL     OW28872   1.898   4.040   2.500  0.1309 -0.3271  0.0590
 9144SOL    HW128873   1.964   4.005   2.560  0.7861  0.7794  0.0117
 9144SOL    HW228874   1.860   4.114   2.547 -0.7765 -0.6716 -0.1028
 9145SOL     OW28875   1.629   5.360   3.342  0.4937  0.0920  0.1483
 9145SOL    HW128876   1.567   5.426   3.312  1.4255 -0.1023 -2.4253
 9145SOL    HW228877   1.686   5.407   3.403 -0.6890  0.8557  0.7077
 9146SOL     OW28878   1.513   4.818   1.801  0.2612 -0.1863 -0.0839
 9146SOL    HW128879   1.600   4.814   1.760  0.2264 -2.0336 -0.0307
 9146SOL    HW228880   1.461   4.755   1.751 -0.9222  0.5406  0.2118
 9147SOL     OW28881   3.434   6.389   4.795 -0.3910  0.4696  0.0173
 9147SOL    HW128882   3.401   6.405   4.883 -1.2446 -0.0133 -0.2040
 9147SOL    HW228883   3.362   6.345   4.749  0.1656  0.3861 -0.8134
 9148SOL     OW28884   2.302   4.286   3.238 -0.1341 -0.1417  0.2392
 9148SOL    HW128885   2.312   4.381   3.239 -0.6147 -0.0725 -0.4722
 9148SOL    HW228886   2.318   4.261   3.147 -2.7022 -0.3927 -0.2241
 9149SOL     OW28887   3.315   3.822   3.832 -0.0020  0.9308 -0.6684
 9149SOL    HW128888   3.261   3.762   3.884 -0.1695  2.5420  1.1258
 9149SOL    HW228889   3.405   3.805   3.862  0.2526 -0.0391 -1.8903
 9150SOL     OW28890   2.229   5.121   4.534  0.0367 -0.1790 -0.9966
 9150SOL    HW128891   2.225   5.070   4.453 -1.6364  0.6731 -1.4928
 9150SOL    HW228892   2.174   5.197   4.517 -2.4943 -1.1997  1.7498
 9151SOL     OW28893   0.643   3.473   0.814 -0.7183 -0.9571  0.3039
 9151SOL    HW128894   0.672   3.547   0.868 -2.1718  0.1639 -0.3801
 9151SOL    HW228895   0.548   3.470   0.827 -0.8838 -1.6982 -0.9265
 9152SOL     OW28896   4.805   4.870   3.223  0.1998  0.1117 -0.7651
 9152SOL    HW128897   4.844   4.945   3.267 -1.5909  0.7920 -0.2648
 9152SOL    HW228898   4.824   4.796   3.280  0.2310  0.5363 -0.2142
 9153SOL     OW28899   2.932   5.554   2.597 -0.2124  0.3455 -0.3252
 9153SOL    HW128900   2.987   5.478   2.617 -2.7509 -1.9770 -1.5782
 9153SOL    HW228901   2.925   5.601   2.681  1.4157 -0.7949  0.4969
 9154SOL     OW28902   1.295   3.796   3.932  0.2879  0.2332 -0.3132
 9154SOL    HW128903   1.261   3.709   3.908 -1.3987  1.0234 -0.9498
 9154SOL    HW228904   1.286   3.800   4.027  0.3094 -0.2616 -0.2880
 9155SOL     OW28905   1.644   5.107   2.999 -0.0200  0.5728 -0.1326
 9155SOL    HW128906   1.711   5.086   2.933 -1.7772  0.7006 -2.0856
 9155SOL    HW228907   1.686   5.090   3.083  2.3599  0.4083 -1.2706
 9156SOL     OW28908   3.138   4.088   2.592  0.2373  0.1640  0.3960
 9156SOL    HW128909   3.137   4.087   2.497 -0.1491 -0.0575  0.4023
 9156SOL    HW228910   3.224   4.053   2.616  0.7581  1.2075  0.1215
 9157SOL     OW28911   3.945   4.496   3.752 -0.0624  0.1171 -0.3305
 9157SOL    HW128912   3.945   4.427   3.817 -4.1075  0.6169  0.4815
 9157SOL    HW228913   3.922   4.575   3.800 -0.4779  1.0354 -1.9423
 9158SOL     OW28914   2.657   2.987   1.167  0.2197 -0.7425  0.1184
 9158SOL    HW128915   2.579   2.984   1.112 -0.0472 -0.9288  0.5011
 9158SOL    HW228916   2.628   3.030   1.248  0.5010 -0.8596  0.2838
 9159SOL     OW28917   2.790   5.855   2.194 -0.3910  0.0545 -0.1516
 9159SOL    HW128918   2.853   5.912   2.150 -0.2861 -0.3473 -0.5270
 9159SOL    HW228919   2.843   5.803   2.254 -0.2533 -0.8094 -1.0047
 9160SOL     OW28920   2.186   4.729   2.377 -0.3772  0.0302  0.6045
 9160SOL    HW128921   2.252   4.665   2.405 -0.0876  0.5619  1.1726
 9160SOL    HW228922   2.150   4.693   2.296  0.5081 -0.3462  0.3676
 9161SOL     OW28923   2.026   6.263   2.130 -0.0322  0.4393  0.2808
 9161SOL    HW128924   2.110   6.301   2.152 -0.1075  1.2853 -0.8163
 9161SOL    HW228925   1.969   6.338   2.111 -1.1101 -0.0999  1.2314
 9162SOL     OW28926   5.222   5.440   3.435  0.1313 -0.3253  0.3009
 9162SOL    HW128927   5.179   5.472   3.514  0.4060 -1.1396  0.7876
 9162SOL    HW228928   5.168   5.473   3.363 -0.4268 -0.0393  0.8436
 9163SOL     OW28929   2.204   3.998   2.911  0.4687  0.1674  0.3537
 9163SOL    HW128930   2.221   4.089   2.936 -0.4757  0.2246  0.8300
 9163SOL    HW228931   2.167   3.959   2.989  0.6986 -0.5882  0.0895
 9164SOL     OW28932   4.000   3.967   2.772 -0.0448 -0.6943 -0.3302
 9164SOL    HW128933   4.003   3.871   2.770 -1.5762 -0.7969  0.9111
 9164SOL    HW228934   3.942   3.988   2.845  2.9660  1.2507  1.7648
 9165SOL     OW28935   2.306   4.010   2.500 -0.2487  0.3703  0.2517
 9165SOL    HW128936   2.361   3.937   2.529  0.3087  0.5789 -0.2610
 9165SOL    HW228937   2.219   3.989   2.534 -0.0441 -0.4131  0.3161
 9166SOL     OW28938   3.564   4.947   3.032  0.5577 -0.0596 -0.0918
 9166SOL    HW128939   3.616   4.931   2.952  0.6360 -1.1141  0.1479
 9166SOL    HW228940   3.522   4.862   3.049  0.7578  0.0834  1.1423
 9167SOL     OW28941   0.345   5.000   2.257  0.5565  0.7639  0.2112
 9167SOL    HW128942   0.335   5.061   2.329 -1.4339 -0.1904  0.8168
 9167SOL    HW228943   0.370   4.917   2.298 -1.5042 -0.0385  0.0087
 9168SOL     OW28944   3.115   4.384   2.383  0.4419 -0.2938 -0.4258
 9168SOL    HW128945   3.070   4.300   2.370  0.4197 -0.4629  0.6797
 9168SOL    HW228946   3.118   4.395   2.478  1.2482  0.5296 -0.5393
 9169SOL     OW28947   0.492   4.028   2.316 -0.7297 -0.1752  0.3103
 9169SOL    HW128948   0.417   3.978   2.284 -0.3406 -0.6082  0.0609
 9169SOL    HW228949   0.514   4.087   2.243  0.1347 -1.1372 -0.2265
 9170SOL     OW28950   0.816   4.081   1.002 -0.3622 -0.3204 -0.2045
 9170SOL    HW128951   0.851   4.041   0.923  0.2938 -0.5879  0.2097
 9170SOL    HW228952   0.892   4.092   1.059 -0.9892 -1.2638  0.8668
 9171SOL     OW28953   2.924   5.001   3.184  0.1216 -0.1565  0.2928
 9171SOL    HW128954   2.973   4.968   3.259  1.0366  0.7694  0.1276
 9171SOL    HW228955   2.871   5.073   3.220  0.2080 -0.0180  0.1433
 9172SOL     OW28956   1.922   6.063   3.110  0.4922  0.0302  0.4490
 9172SOL    HW128957   1.913   5.972   3.080 -0.1131 -0.8228  3.0067
 9172SOL    HW228958   1.832   6.094   3.122  0.6116  1.6584 -2.0697
 9173SOL     OW28959   2.518   4.874   2.214  0.5106 -0.4103 -0.1591
 9173SOL    HW128960   2.514   4.780   2.198  0.5238 -0.2634 -1.1200
 9173SOL    HW228961   2.587   4.885   2.279 -1.1220 -1.2671  1.8543
 9174SOL     OW28962   3.988   5.230   3.263 -0.6718  0.4591 -0.1207
 9174SOL    HW128963   3.919   5.168   3.286  0.4400 -0.7067  0.1478
 9174SOL    HW228964   3.998   5.221   3.168 -0.5858  0.2973 -0.0970
 9175SOL     OW28965   3.253   5.587   3.362 -0.6621  0.5103 -0.2389
 9175SOL    HW128966   3.190   5.659   3.356 -1.2114  0.0229 -0.5251
 9175SOL    HW228967   3.338   5.629   3.371 -1.2087  1.1948  2.2501
 9176SOL     OW28968   3.527   5.321   2.434  0.3599 -0.5718 -0.3046
 9176SOL    HW128969   3.522   5.280   2.521  0.7729 -0.5040 -0.2442
 9176SOL    HW228970   3.576   5.402   2.449  0.9086 -0.8247 -0.6939
 9177SOL     OW28971   0.742   4.792   3.130  0.5015 -0.3790 -0.6525
 9177SOL    HW128972   0.659   4.839   3.121  1.3503  1.0155 -1.6403
 9177SOL    HW228973   0.717   4.701   3.143 -1.1845 -0.1064 -1.6964
 9178SOL     OW28974   2.542   5.383   3.777 -0.3553  0.2090 -0.2508
 9178SOL    HW128975   2.626   5.341   3.758 -1.1558 -1.7034  0.2238
 9178SOL    HW228976   2.476   5.320   3.747 -1.6618  2.0380 -1.4450
 9179SOL     OW28977   5.026   4.917   3.766 -0.6228 -0.0548  0.2266
 9179SOL    HW128978   4.996   5.007   3.751  1.9158  0.6074 -1.6271
 9179SOL    HW228979   4.997   4.869   3.689 -0.5553 -0.4351  0.4348
 9180SOL     OW28980   0.720   3.300   2.333 -0.5398 -0.5321 -0.7163
 9180SOL    HW128981   0.774   3.377   2.316 -1.1956  0.1291  0.0855
 9180SOL    HW228982   0.782   3.228   2.341  0.2879  0.2953  0.6823
 9181SOL     OW28983   2.272   4.988   2.107  0.3269 -0.1292 -0.5299
 9181SOL    HW128984   2.345   4.942   2.147  1.1713 -0.2833 -2.1615
 9181SOL    HW228985   2.240   5.048   2.175  0.8095 -1.3259  0.7827
 9182SOL     OW28986   2.532   4.182   2.602  0.1357 -0.5843 -0.2051
 9182SOL    HW128987   2.471   4.136   2.545 -0.4828 -0.0136 -0.0128
 9182SOL    HW228988   2.492   4.177   2.689 -0.9928  2.0247 -0.4865
 9183SOL     OW28989   5.147   4.597   1.768  0.5976  0.1867  0.5859
 9183SOL    HW128990   5.053   4.613   1.756  0.9179  1.3590 -0.7200
 9183SOL    HW228991   5.161   4.510   1.730  0.0236 -0.0221  0.8462
 9184SOL     OW28992   4.984   5.171   3.100  0.6534 -0.4069 -0.5280
 9184SOL    HW128993   5.004   5.150   3.192 -1.2968  1.2194  0.3337
 9184SOL    HW228994   4.978   5.266   3.098 -0.5990 -0.4796 -2.0513
 9185SOL     OW28995   2.360   3.541   2.461  0.2774  0.4465  0.2433
 9185SOL    HW128996   2.334   3.462   2.509 -1.6053  0.9295  0.0869
 9185SOL    HW228997   2.391   3.600   2.529  1.4426 -0.3108  0.3917
 9186SOL     OW28998   1.149   5.422   4.353  0.0200  0.4124 -0.1016
 9186SOL    HW128999   1.233   5.462   4.375 -1.0519  1.6913  1.9829
 9186SOL    HW229000   1.156   5.332   4.384  0.9228  0.2466 -0.7741
 9187SOL     OW29001   3.668   6.306   4.534  0.7710  0.4063 -0.1116
 9187SOL    HW129002   3.707   6.223   4.506 -1.1957 -0.6339 -0.0334
 9187SOL    HW229003   3.573   6.288   4.534  0.3072  2.5883  0.1652
 9188SOL     OW29004   3.867   4.781   2.111 -0.7522  0.1838 -0.3150
 9188SOL    HW129005   3.933   4.711   2.107  0.5954  1.3747  0.0611
 9188SOL    HW229006   3.883   4.832   2.031  0.0311  1.5373  0.6776
 9189SOL     OW29007   3.175   4.483   1.855  1.1072 -0.2538 -0.0210
 9189SOL    HW129008   3.191   4.495   1.761  0.1582  0.2018 -0.1286
 9189SOL    HW229009   3.248   4.530   1.897  1.3503 -0.1718 -0.5218
 9190SOL     OW29010   4.261   5.901   2.615 -0.1792  0.0759  0.1938
 9190SOL    HW129011   4.354   5.897   2.635 -0.7755 -0.5646  3.3574
 9190SOL    HW229012   4.227   5.969   2.673 -1.8780 -0.7264  0.2019
 9191SOL     OW29013   3.670   7.372   3.829  0.0795 -0.1362 -0.4332
 9191SOL    HW129014   3.590   7.318   3.838  0.5752 -0.9890 -0.9601
 9191SOL    HW229015   3.737   7.323   3.877  0.0523  1.1626  1.0145
 9192SOL     OW29016   2.322   5.120   3.269 -0.3553  0.5292  0.2674
 9192SOL    HW129017   2.262   5.134   3.195 -0.5332  1.7213  0.6278
 9192SOL    HW229018   2.355   5.207   3.290 -0.5451  0.2551  1.7984
 9193SOL     OW29019   2.096   6.010   2.250  0.0148 -0.2058 -0.1953
 9193SOL    HW129020   2.041   5.942   2.289  0.4730 -1.0204 -0.9203
 9193SOL    HW229021   2.037   6.061   2.195  0.0799 -1.5274 -1.5516
 9194SOL     OW29022   3.547   6.011   3.214 -0.0359 -0.0689 -0.0513
 9194SOL    HW129023   3.496   6.075   3.165 -0.3758 -0.5468 -0.3385
 9194SOL    HW229024   3.567   5.943   3.150 -1.3951 -1.2419  0.6918
 9195SOL     OW29025   2.503   4.462   4.424  0.0695  0.5523  0.1181
 9195SOL    HW129026   2.533   4.499   4.507 -0.7055 -0.5060  0.9050
 9195SOL    HW229027   2.583   4.436   4.379  0.5664  2.2441 -0.0289
 9196SOL     OW29028   3.060   3.525   2.460 -0.5691  0.0608 -0.3587
 9196SOL    HW129029   3.150   3.532   2.430 -0.1701  1.8820  1.0094
 9196SOL    HW229030   3.007   3.523   2.381  0.6224  0.1392 -1.1716
 9197SOL     OW29031   3.903   4.520   3.026 -0.6569 -0.4299 -0.2248
 9197SOL    HW129032   3.846   4.596   3.040  2.1305  1.7737  0.3400
 9197SOL    HW229033   3.864   4.451   3.079 -1.3996  1.7311  2.3149
 9198SOL     OW29034   2.297   4.770   3.071 -0.6228 -0.0009  0.7359
 9198SOL    HW129035   2.301   4.694   3.129 -0.6381 -0.4797  0.1123
 9198SOL    HW229036   2.332   4.739   2.988 -0.2368  0.7875  0.5936
 9199SOL     OW29037   2.485   4.804   4.046  0.0136 -0.2964  0.4918
 9199SOL    HW129038   2.472   4.779   3.955  0.2187 -0.7468  0.5811
 9199SOL    HW229039   2.558   4.749   4.075  0.0775 -0.0145  0.8703
 9200SOL     OW29040   0.887   5.701   2.337 -0.4601  0.1545 -0.5451
 9200SOL    HW129041   0.959   5.712   2.399 -0.9980 -0.3077  0.1682
 9200SOL    HW229042   0.862   5.790   2.312  0.5325  0.3172 -1.0169
 9201SOL     OW29043   3.864   4.945   2.636 -0.3438  0.7049  0.2397
 9201SOL    HW129044   3.908   4.982   2.713  0.1315 -0.5072  0.5672
 9201SOL    HW229045   3.904   4.989   2.562  0.3887  0.6689  0.6077
 9202SOL     OW29046   1.671   2.910   2.984 -0.4173 -0.0670 -0.1369
 9202SOL    HW129047   1.640   2.942   3.069  0.8022 -1.2287  0.7920
 9202SOL    HW229048   1.749   2.962   2.966 -0.3489 -0.2131 -0.2628
 9203SOL     OW29049   3.912   5.095   2.935 -0.5639 -0.5608 -0.6024
 9203SOL    HW129050   3.913   5.015   2.988 -0.0136  0.5072  1.0511
 9203SOL    HW229051   3.825   5.132   2.950 -1.2815 -1.4165 -2.3330
 9204SOL     OW29052   2.557   4.388   1.654 -0.0386  0.2463 -0.4419
 9204SOL    HW129053   2.469   4.414   1.684 -0.4470 -1.9465  0.4808
 9204SOL    HW229054   2.606   4.470   1.648 -2.6212  1.7910 -2.7783
 9205SOL     OW29055   3.131   5.827   3.304 -0.1179  0.2684 -0.0500
 9205SOL    HW129056   3.181   5.909   3.309 -1.3758  1.0624  0.0064
 9205SOL    HW229057   3.039   5.855   3.306 -0.6103 -1.2778  2.1522
 9206SOL     OW29058   0.870   3.108   2.424  0.0022  0.1779  0.3338
 9206SOL    HW129059   0.835   3.062   2.500  0.6476  0.4876  0.8255
 9206SOL    HW229060   0.892   3.038   2.362 -1.7881 -0.0068 -0.1431
 9207SOL     OW29061   2.020   3.498   2.869 -0.2359 -0.0683 -0.0131
 9207SOL    HW129062   1.946   3.444   2.843  1.5375 -2.4887 -0.3571
 9207SOL    HW229063   1.980   3.572   2.915 -2.8527 -1.1085 -0.4199
 9208SOL     OW29064   2.747   3.757   2.724  0.0147 -0.2309 -0.0830
 9208SOL    HW129065   2.841   3.771   2.710  0.0709  0.7039  1.0779
 9208SOL    HW229066   2.705   3.834   2.685 -0.1371  0.1816  0.8764
 9209SOL     OW29067   3.581   4.290   3.536  0.1091  0.0427  1.0711
 9209SOL    HW129068   3.667   4.283   3.577  0.6988 -0.3961 -0.1996
 9209SOL    HW229069   3.535   4.357   3.587  0.6670 -0.7352  2.6470
 9210SOL     OW29070   2.791   3.959   2.305  0.1332  0.2780  0.4748
 9210SOL    HW129071   2.725   3.900   2.341  2.7256 -2.4431  1.1575
 9210SOL    HW229072   2.769   3.964   2.212 -1.2629 -0.1699  0.7473
 9211SOL     OW29073   3.411   3.963   2.637  0.5760 -0.2648  0.1283
 9211SOL    HW129074   3.404   3.902   2.565  0.6679 -0.4483  0.2751
 9211SOL    HW229075   3.490   4.013   2.619 -0.5320  1.1659 -1.0333
 9212SOL     OW29076   2.511   6.772   5.269 -0.1929  0.1392 -0.6201
 9212SOL    HW129077   2.596   6.740   5.299  0.0698 -0.5352 -1.9981
 9212SOL    HW229078   2.526   6.864   5.249  0.6833 -0.3250 -2.3494
 9213SOL     OW29079   4.553   5.299   1.912  0.3638  0.4159 -0.0120
 9213SOL    HW129080   4.582   5.290   2.003  0.8505  1.2825 -0.0678
 9213SOL    HW229081   4.461   5.275   1.913  0.0376  1.5952  0.9585
 9214SOL     OW29082   0.959   2.737   2.538  0.6030  0.2921 -0.3908
 9214SOL    HW129083   0.936   2.808   2.597  0.4289 -0.3183  0.3005
 9214SOL    HW229084   0.877   2.688   2.528  0.8999 -0.2377 -0.2527
 9215SOL     OW29085   5.177   5.884   2.957 -0.0123  0.2636  0.2905
 9215SOL    HW129086   5.139   5.799   2.933 -0.7402 -0.1529  2.7161
 9215SOL    HW229087   5.164   5.939   2.879 -0.6928 -1.4458 -0.8559
 9216SOL     OW29088   0.735   6.601   4.265  0.8240 -1.0963  0.0735
 9216SOL    HW129089   0.673   6.575   4.197 -2.5925 -2.2215  3.3078
 9216SOL    HW229090   0.786   6.523   4.282  1.2524 -0.9951 -0.6848
 9217SOL     OW29091   4.225   4.749   3.526 -0.1777  0.6925 -0.1286
 9217SOL    HW129092   4.204   4.820   3.586 -1.2780  0.4642 -0.2167
 9217SOL    HW229093   4.228   4.671   3.581  1.4032  0.8493  0.0282
 9218SOL     OW29094   3.588   4.630   0.936  0.4177  0.4496 -0.4841
 9218SOL    HW129095   3.593   4.617   0.842  1.7832  1.3616 -0.5702
 9218SOL    HW229096   3.657   4.575   0.972 -0.4258 -0.2888  0.0483
 9219SOL     OW29097   3.174   4.402   2.648  0.4105 -0.3999 -0.1174
 9219SOL    HW129098   3.267   4.424   2.648  0.5372 -0.4593 -3.5396
 9219SOL    HW229099   3.172   4.308   2.665  0.9555 -0.3779  0.0857
 9220SOL     OW29100   3.882   4.159   3.765 -1.1005 -0.0887  0.3389
 9220SOL    HW129101   3.976   4.142   3.767 -1.1237 -0.3526 -0.4824
 9220SOL    HW229102   3.842   4.075   3.784 -1.1808 -0.3305 -0.8362
 9221SOL     OW29103   5.063   5.596   3.197 -0.1441 -0.1718 -0.2212
 9221SOL    HW129104   5.108   5.581   3.115  0.0260 -0.4416 -0.0783
 9221SOL    HW229105   4.985   5.540   3.193  0.0914 -0.5163 -0.0138
 9222SOL     OW29106   3.929   7.371   3.625  0.1308 -0.0590 -0.2016
 9222SOL    HW129107   3.922   7.443   3.687 -1.1627  0.3388 -0.7735
 9222SOL    HW229108   4.017   7.379   3.588 -0.0151  1.2782 -0.3042
 9223SOL     OW29109   3.944   5.882   3.619 -0.2184 -0.1552 -0.0162
 9223SOL    HW129110   4.009   5.813   3.613 -1.2915 -1.1985  0.0944
 9223SOL    HW229111   3.924   5.906   3.529 -1.8212 -1.9331 -0.2002
 9224SOL     OW29112   4.071   5.518   3.151  0.5185 -0.5941 -0.4860
 9224SOL    HW129113   4.150   5.488   3.196 -1.2848 -1.9818  1.9889
 9224SOL    HW229114   4.001   5.461   3.183 -1.9147  1.9065 -0.9057
 9225SOL     OW29115   2.981   2.895   2.156 -0.2742 -0.1898  0.2207
 9225SOL    HW129116   2.939   2.877   2.072 -1.0364 -1.2203  0.8176
 9225SOL    HW229117   3.021   2.812   2.182 -1.6462 -0.4125  1.7648
 9226SOL     OW29118   2.696   2.866   1.521 -0.0630 -0.0063  0.6703
 9226SOL    HW129119   2.767   2.849   1.459 -0.2014  0.1500  0.4678
 9226SOL    HW229120   2.723   2.945   1.568  0.5330 -0.7064  1.5410
 9227SOL     OW29121   2.170   5.633   4.583  0.4780 -0.2658  0.5296
 9227SOL    HW129122   2.216   5.614   4.501 -0.9292  0.7640 -0.5313
 9227SOL    HW229123   2.226   5.695   4.628  0.8157 -0.1155 -0.0863
 9228SOL     OW29124   3.922   4.063   2.518  0.3826  0.0759 -0.5629
 9228SOL    HW129125   3.955   4.017   2.595 -1.3612 -0.2482  0.0307
 9228SOL    HW229126   3.950   4.154   2.530 -0.1517  0.1017  0.6456
 9229SOL     OW29127   2.895   3.880   5.596 -0.0899 -0.1705 -0.2210
 9229SOL    HW129128   2.935   3.875   5.682  1.5093 -0.4262 -0.9419
 9229SOL    HW229129   2.882   3.789   5.569  0.5585 -0.1162 -0.7438
 9230SOL     OW29130   1.718   3.653   4.822  0.3803  0.0043 -0.1221
 9230SOL    HW129131   1.658   3.718   4.860 -0.4803 -0.7296 -0.2028
 9230SOL    HW229132   1.699   3.654   4.729 -1.4455 -2.1104  0.1436
 9231SOL     OW29133   3.378   6.127   2.999 -0.1212 -0.6949  0.4493
 9231SOL    HW129134   3.390   6.175   2.917  1.4975  0.3337  1.2237
 9231SOL    HW229135   3.420   6.042   2.983  1.0044 -0.1614  0.4730
 9232SOL     OW29136   1.693   3.387   3.410  0.7758  0.2832 -0.1758
 9232SOL    HW129137   1.658   3.362   3.496  1.8483  1.3234  0.6000
 9232SOL    HW229138   1.624   3.362   3.348 -0.2117 -0.1011  1.0285
 9233SOL     OW29139   3.000   3.232   3.618 -0.7673  0.4500 -0.3896
 9233SOL    HW129140   2.946   3.303   3.584 -2.0319  0.2461  1.0859
 9233SOL    HW229141   3.039   3.267   3.698  1.1508  0.5056 -1.2828
 9234SOL     OW29142   0.774   6.125   2.571 -0.7218 -0.3644  0.6030
 9234SOL    HW129143   0.801   6.041   2.606  1.9527  0.5228  0.9122
 9234SOL    HW229144   0.775   6.184   2.646  1.2282  0.7035 -0.1811
 9235SOL     OW29145   1.273   2.912   3.477 -0.5785 -0.2980  0.8454
 9235SOL    HW129146   1.329   2.915   3.555  0.1019  0.6080  0.3491
 9235SOL    HW229147   1.193   2.959   3.503  0.3204  1.5140  0.5332
 9236SOL     OW29148   2.878   5.449   0.753  0.0968  0.7573  0.2519
 9236SOL    HW129149   2.795   5.486   0.725  0.4104 -0.3011 -2.3405
 9236SOL    HW229150   2.856   5.358   0.777  0.1456  1.1440  1.8588
 9237SOL     OW29151   3.103   2.927   3.855  0.1519  0.4568  0.5841
 9237SOL    HW129152   3.106   2.848   3.910  0.2907 -0.5473 -0.8196
 9237SOL    HW229153   3.016   2.963   3.870  0.0047 -0.0868  1.0745
 9238SOL     OW29154   2.867   2.719   1.907 -0.0699  0.0241  0.0903
 9238SOL    HW129155   2.857   2.661   1.831  0.0462 -0.9671  0.8160
 9238SOL    HW229156   2.899   2.802   1.870  1.8904 -1.0500 -0.7560
 9239SOL     OW29157   3.189   3.404   3.092 -0.2859  0.6736  0.2437
 9239SOL    HW129158   3.117   3.353   3.056 -0.0813 -0.4643  1.3827
 9239SOL    HW229159   3.228   3.348   3.159  1.4026  1.4209 -0.0430
 9240SOL     OW29160   3.606   5.831   2.200  0.1496  0.5034 -0.0823
 9240SOL    HW129161   3.689   5.833   2.247 -0.3768 -0.6865  0.9303
 9240SOL    HW229162   3.600   5.742   2.164 -0.6952  0.5703 -0.1372
 9241SOL     OW29163   2.088   5.340   4.383 -0.8813  0.0329 -0.4324
 9241SOL    HW129164   2.014   5.383   4.426 -1.0629  0.3662 -1.0714
 9241SOL    HW229165   2.062   5.333   4.291 -0.7968 -1.3045 -0.3851
 9242SOL     OW29166   0.351   3.608   3.909 -0.6777 -0.5655  0.7651
 9242SOL    HW129167   0.325   3.619   4.001  0.2416  2.2334  0.7771
 9242SOL    HW229168   0.285   3.656   3.859  0.3553  0.3428  0.2267
 9243SOL     OW29169   1.939   4.161   4.886 -0.3487  0.3591 -0.0166
 9243SOL    HW129170   2.022   4.154   4.839 -0.5997  1.7501 -0.7282
 9243SOL    HW229171   1.927   4.255   4.900 -2.5853  0.3632 -1.4235
 9244SOL     OW29172   3.120   5.340   5.377  0.0441  0.6479  0.1457
 9244SOL    HW129173   3.081   5.292   5.450 -0.0536  0.8746  0.2430
 9244SOL    HW229174   3.058   5.328   5.305  0.9101 -0.9240 -0.3871
 9245SOL     OW29175   3.053   4.414   3.057 -0.1511  0.0174  0.2292
 9245SOL    HW129176   3.053   4.364   3.139  0.4478 -0.2255  0.0855
 9245SOL    HW229177   3.139   4.397   3.019  0.1941  1.4336  0.3452
 9246SOL     OW29178   3.607   5.776   5.736 -0.3574  0.4469  0.0659
 9246SOL    HW129179   3.543   5.841   5.707 -0.6703 -0.0847 -0.4460
 9246SOL    HW229180   3.565   5.692   5.722  0.5809  0.0699 -0.6246
 9247SOL     OW29181   2.817   4.670   4.362 -0.1084 -0.4491 -0.5908
 9247SOL    HW129182   2.856   4.588   4.334  1.5065  0.2585 -0.5580
 9247SOL    HW229183   2.869   4.738   4.319 -1.6205  0.5697 -0.9073
 9248SOL     OW29184   2.208   3.854   4.424  0.4561  0.0059 -0.2906
 9248SOL    HW129185   2.271   3.793   4.385  1.5489  0.9535 -0.0756
 9248SOL    HW229186   2.262   3.926   4.458 -0.8363  1.4374 -1.1388
 9249SOL     OW29187   2.234   6.107   5.891  0.2874  0.2172  0.0261
 9249SOL    HW129188   2.260   6.199   5.901  0.3788  0.2322 -0.3512
 9249SOL    HW229189   2.312   6.064   5.856  0.0537  0.1083 -0.3567
 9250SOL     OW29190   2.338   4.153   4.429 -0.5381 -0.2329  0.0856
 9250SOL    HW129191   2.329   4.210   4.352 -0.6876 -1.2782 -0.6944
 9250SOL    HW229192   2.390   4.205   4.491 -0.3735  0.6142 -0.7323
 9251SOL     OW29193   4.405   6.916   4.043 -0.4623 -0.0537 -0.0216
 9251SOL    HW129194   4.470   6.944   3.979 -0.6595  0.4282 -0.0153
 9251SOL    HW229195   4.416   6.822   4.049  2.0115  0.2636  1.8764
 9252SOL     OW29196   1.116   3.068   5.307 -0.0654 -0.4964  0.5968
 9252SOL    HW129197   1.115   3.093   5.399 -0.6809  2.0086 -0.0346
 9252SOL    HW229198   1.170   3.134   5.264 -1.6556 -0.2791 -1.1837
 9253SOL     OW29199   3.304   4.128   4.591 -0.4846 -0.0424  0.5314
 9253SOL    HW129200   3.323   4.045   4.635 -1.6210 -1.1096 -0.8861
 9253SOL    HW229201   3.214   4.148   4.617 -1.0205 -0.4670 -0.9163
 9254SOL     OW29202   1.157   6.815   3.627  0.2188  0.1356  0.1263
 9254SOL    HW129203   1.177   6.893   3.679 -1.3652  0.7314 -0.1024
 9254SOL    HW229204   1.220   6.817   3.555  1.2560  0.2823  1.0091
 9255SOL     OW29205   1.277   3.291   4.046  0.1426 -0.6963 -0.0195
 9255SOL    HW129206   1.272   3.379   4.009  0.1891 -0.4894  0.4617
 9255SOL    HW229207   1.247   3.301   4.136  2.9208 -0.6192  0.9890
 9256SOL     OW29208   1.546   5.259   4.531  0.0651  0.1974 -0.5411
 9256SOL    HW129209   1.583   5.336   4.487 -1.9338  1.6985  0.2629
 9256SOL    HW229210   1.613   5.191   4.521  2.7110  2.5021  0.2201
 9257SOL     OW29211   3.113   4.717   4.053  0.5634 -0.1068  0.3530
 9257SOL    HW129212   3.135   4.657   4.124  1.4590 -1.0194 -0.6727
 9257SOL    HW229213   3.133   4.804   4.088  2.9566 -0.6791  0.5265
 9258SOL     OW29214   2.812   4.222   6.552  0.9573 -0.2156  0.3570
 9258SOL    HW129215   2.881   4.288   6.561  0.5281  0.0755  1.7652
 9258SOL    HW229216   2.811   4.177   6.636 -0.7274 -0.0618  0.4437
 9259SOL     OW29217   3.410   4.305   3.844 -0.3083  0.0315 -0.3403
 9259SOL    HW129218   3.505   4.298   3.836 -0.0901  0.5703  1.3694
 9259SOL    HW229219   3.395   4.327   3.936 -2.0953 -0.0416 -0.5734
 9260SOL     OW29220   1.097   5.051   5.140 -0.3596 -0.1812  0.3156
 9260SOL    HW129221   1.181   5.011   5.159  1.3238  2.2956 -1.2615
 9260SOL    HW229222   1.095   5.131   5.192 -1.2149  0.3684 -0.5163
 9261SOL     OW29223   3.555   5.044   3.556  0.7245  0.0016  0.2785
 9261SOL    HW129224   3.632   5.078   3.601  0.8398 -0.9073  0.7933
 9261SOL    HW229225   3.567   5.072   3.465  0.4405  1.9283  0.7888
 9262SOL     OW29226   1.614   6.075   3.785 -0.4620  0.0657  0.1850
 9262SOL    HW129227   1.539   6.015   3.789 -0.2833 -0.1240  0.7615
 9262SOL    HW229228   1.603   6.132   3.862  0.5487 -0.6393  0.8655
 9263SOL     OW29229   3.682   5.416   2.981 -0.3769  0.4011  0.3957
 9263SOL    HW129230   3.606   5.445   3.031 -0.8877 -0.5660  0.2153
 9263SOL    HW229231   3.709   5.334   3.023  0.1334  0.3767  0.0342
 9264SOL     OW29232   1.285   5.187   4.461  0.1595  0.0169 -0.2775
 9264SOL    HW129233   1.368   5.223   4.491  0.0817  0.4100 -0.5294
 9264SOL    HW229234   1.304   5.152   4.374  0.3955 -1.1611  0.2326
 9265SOL     OW29235   4.727   6.971   4.182 -0.0117 -0.2187  0.1183
 9265SOL    HW129236   4.716   7.008   4.094 -1.3489 -1.0653 -0.0861
 9265SOL    HW229237   4.730   7.048   4.239  1.4323  0.3726 -0.6947
 9266SOL     OW29238   3.100   6.545   4.740 -0.2394  0.2750  0.0780
 9266SOL    HW129239   3.060   6.549   4.827 -1.6214  2.4774 -0.5835
 9266SOL    HW229240   3.166   6.615   4.741  0.2958 -0.2163 -0.3983
 9267SOL     OW29241   1.755   3.876   5.956  0.8788 -0.4800  0.3747
 9267SOL    HW129242   1.785   3.945   6.016  0.9697  0.7057 -0.9687
 9267SOL    HW229243   1.762   3.916   5.869  2.5193 -2.7799 -0.6384
 9268SOL     OW29244   2.829   4.816   4.795  0.1204  0.5085 -0.0608
 9268SOL    HW129245   2.800   4.902   4.824 -0.1092 -0.0296  1.3673
 9268SOL    HW229246   2.822   4.761   4.872  0.1981 -0.8177 -0.9641
 9269SOL     OW29247   4.956   6.500   3.327 -0.1412 -0.4993 -0.2095
 9269SOL    HW129248   4.948   6.584   3.281 -0.4812  0.7224  1.9526
 9269SOL    HW229249   5.044   6.502   3.365  0.3114 -1.6993 -1.1287
 9270SOL     OW29250   2.800   6.634   5.167  0.1168  0.4203 -0.5569
 9270SOL    HW129251   2.889   6.602   5.162 -0.2027 -0.6080  0.1342
 9270SOL    HW229252   2.791   6.667   5.256 -1.3449 -3.1482  0.7900
 9271SOL     OW29253   1.524   2.679   5.251  0.2055 -0.3388 -0.3728
 9271SOL    HW129254   1.584   2.645   5.318  0.8263  1.2269 -0.1038
 9271SOL    HW229255   1.580   2.723   5.188 -0.6552  2.1447  0.4536
 9272SOL     OW29256   3.926   5.438   3.962 -0.0173 -0.0718 -0.1142
 9272SOL    HW129257   4.007   5.440   4.014  0.5282 -1.3475 -0.8743
 9272SOL    HW229258   3.867   5.384   4.013  0.1431 -0.4203 -0.2969
 9273SOL     OW29259   3.609   2.311   4.317  0.5117 -0.6903  0.0560
 9273SOL    HW129260   3.578   2.350   4.399  1.1509 -0.8396  0.3806
 9273SOL    HW229261   3.581   2.373   4.249  0.3827 -0.3256  0.4372
 9274SOL     OW29262   2.272   5.627   4.320 -0.6055 -0.3698 -0.3723
 9274SOL    HW129263   2.360   5.600   4.294 -0.8853 -0.9157 -0.7717
 9274SOL    HW229264   2.247   5.695   4.258 -0.7186 -0.6792 -0.6692
 9275SOL     OW29265   0.310   4.928   4.956  0.4071 -0.5217  0.2532
 9275SOL    HW129266   0.258   5.008   4.949  0.0381 -0.7944 -0.2011
 9275SOL    HW229267   0.279   4.886   5.036 -1.1145 -1.3874 -0.7337
 9276SOL     OW29268   2.033   5.573   5.575  0.0576  0.0789  0.5112
 9276SOL    HW129269   2.058   5.588   5.484 -1.9608  2.0403  0.1943
 9276SOL    HW229270   1.990   5.488   5.575  0.4806 -0.1421 -0.2481
 9277SOL     OW29271   0.603   4.955   3.460  0.2913 -0.5483 -0.7688
 9277SOL    HW129272   0.681   4.906   3.484 -1.0360 -2.0029  0.8550
 9277SOL    HW229273   0.590   4.936   3.367  1.7112 -0.4766 -0.9949
 9278SOL     OW29274   2.668   4.590   4.593 -0.1728  0.5051  0.1745
 9278SOL    HW129275   2.744   4.535   4.615 -1.1273 -1.0003 -0.1690
 9278SOL    HW229276   2.695   4.635   4.514 -0.0203 -0.8980 -0.6159
 9279SOL     OW29277   2.923   4.491   5.758 -0.3282  0.2548  0.1659
 9279SOL    HW129278   2.831   4.500   5.731 -1.1527 -0.5153  2.4429
 9279SOL    HW229279   2.957   4.580   5.758 -1.1152  0.5700 -0.5475
 9280SOL     OW29280   1.373   4.505   4.421  0.0476  0.4518 -0.0722
 9280SOL    HW129281   1.307   4.435   4.424  1.1141 -0.5788  0.0750
 9280SOL    HW229282   1.375   4.540   4.510  0.3760 -0.1668  0.1685
 9281SOL     OW29283   3.717   2.785   4.304  0.1971  0.0793  0.4829
 9281SOL    HW129284   3.655   2.841   4.257 -1.6602 -0.6305  1.9403
 9281SOL    HW229285   3.720   2.822   4.392 -0.9827 -1.9573  1.4484
 9282SOL     OW29286   3.346   5.449   3.923  0.1524  0.1521  0.2723
 9282SOL    HW129287   3.397   5.371   3.902 -1.3065 -1.1829  1.4791
 9282SOL    HW229288   3.308   5.477   3.840 -0.5528 -1.3558  0.0698
 9283SOL     OW29289   4.562   7.604   3.616  0.0195  0.5878 -0.4866
 9283SOL    HW129290   4.647   7.615   3.572 -0.0727  1.2170 -0.5164
 9283SOL    HW229291   4.508   7.675   3.581 -0.2637  0.6789  0.1338
 9284SOL     OW29292   2.646   4.576   4.142 -0.1613 -0.1803 -0.9120
 9284SOL    HW129293   2.611   4.587   4.231 -2.8858 -1.4477 -1.7256
 9284SOL    HW229294   2.726   4.526   4.154  0.5594  1.2853  0.9377
 9285SOL     OW29295   0.771   4.368   5.367  0.2260  0.2751  0.1923
 9285SOL    HW129296   0.835   4.392   5.300  0.4424  2.4983  1.1167
 9285SOL    HW229297   0.806   4.405   5.448 -0.2044 -2.0470  1.5345
 9286SOL     OW29298   2.499   4.404   3.980  0.1183 -0.5879 -0.0248
 9286SOL    HW129299   2.544   4.475   4.024 -0.8627  0.3501 -0.4809
 9286SOL    HW229300   2.563   4.333   3.976  1.7319  0.8410 -1.0917
 9287SOL     OW29301   2.885   4.088   6.834 -0.1079 -0.5324 -0.9141
 9287SOL    HW129302   2.923   4.058   6.916  1.6051  2.8264 -0.2976
 9287SOL    HW229303   2.922   4.031   6.767  1.5292 -0.9612  0.2978
 9288SOL     OW29304   2.999   6.660   3.664  0.1658 -0.1769 -0.1934
 9288SOL    HW129305   3.061   6.623   3.727  0.7859  0.0098 -0.6822
 9288SOL    HW229306   3.054   6.708   3.602 -0.2470 -1.8960 -1.9580
 9289SOL     OW29307   2.791   3.392   3.583 -0.8035  0.8436  0.1530
 9289SOL    HW129308   2.765   3.325   3.646  0.0309  0.5802  0.2269
 9289SOL    HW229309   2.767   3.475   3.625 -0.4774  0.6603  0.7076
 9290SOL     OW29310   0.819   3.886   4.362 -0.0761  0.5889  0.5106
 9290SOL    HW129311   0.753   3.829   4.323 -1.5933  2.4905  0.1477
 9290SOL    HW229312   0.892   3.885   4.300 -0.9753  0.7228 -0.5794
 9291SOL     OW29313   2.877   5.758   3.594  0.3458 -0.0368  0.9124
 9291SOL    HW129314   2.918   5.673   3.577  0.8216  0.0234  1.7272
 9291SOL    HW229315   2.825   5.744   3.673  0.4896  0.4446  1.0944
 9292SOL     OW29316   4.505   5.009   3.415  0.1139  0.6812 -0.2528
 9292SOL    HW129317   4.474   4.918   3.418  0.6436  0.4950 -0.3728
 9292SOL    HW229318   4.492   5.041   3.505 -3.3769  1.6335 -0.9257
 9293SOL     OW29319   1.679   4.987   4.713 -0.1231  0.2262 -0.0525
 9293SOL    HW129320   1.636   4.974   4.797  2.3672 -1.5598  1.0544
 9293SOL    HW229321   1.655   4.909   4.662 -0.8179  0.8201 -0.6488
 9294SOL     OW29322   4.328   5.927   4.481 -0.4048 -0.1867  0.0737
 9294SOL    HW129323   4.262   5.950   4.415 -0.5248 -0.2060  0.1880
 9294SOL    HW229324   4.367   6.011   4.506  0.8763 -0.3306 -1.3229
 9295SOL     OW29325   2.343   6.169   3.421 -0.0783 -1.0327 -0.6904
 9295SOL    HW129326   2.389   6.223   3.485 -1.1677 -1.5252  0.5544
 9295SOL    HW229327   2.278   6.121   3.472 -0.0776 -2.4846 -1.9551
 9296SOL     OW29328   2.480   3.557   4.003  0.0391  0.1703 -0.3080
 9296SOL    HW129329   2.504   3.525   3.916 -0.2124  0.4907 -0.5001
 9296SOL    HW229330   2.487   3.481   4.060  1.4304  0.2360 -0.3713
 9297SOL     OW29331   2.989   4.148   5.404  0.0279  0.1790 -0.1072
 9297SOL    HW129332   2.996   4.241   5.383  2.1333  0.3893  1.2999
 9297SOL    HW229333   3.079   4.116   5.406 -0.6458 -1.9094 -0.5336
 9298SOL     OW29334   2.714   5.479   1.726 -0.1746  0.4494  0.2597
 9298SOL    HW129335   2.679   5.562   1.694 -0.0842 -0.0498 -1.1935
 9298SOL    HW229336   2.809   5.489   1.722 -0.1636  0.2903  0.1221
 9299SOL     OW29337   2.993   3.946   4.567  0.1762 -0.0609  0.1334
 9299SOL    HW129338   3.024   4.035   4.582  0.1766  0.1890 -1.2820
 9299SOL    HW229339   2.965   3.916   4.654 -0.6786  1.6222  0.4803
 9300SOL     OW29340   3.181   5.878   4.018  0.2850  0.1528 -0.3635
 9300SOL    HW129341   3.199   5.785   4.032  1.5766  0.3264 -0.7158
 9300SOL    HW229342   3.205   5.920   4.101  1.7068  0.4034 -0.8781
 9301SOL     OW29343   2.408   5.131   3.902  0.0250 -0.8458  0.5557
 9301SOL    HW129344   2.338   5.196   3.904  0.6043 -0.1682 -0.5547
 9301SOL    HW229345   2.451   5.140   3.987  0.8570  1.0965 -0.0260
 9302SOL     OW29346   2.162   4.709   4.134 -0.1063  0.0507  0.7307
 9302SOL    HW129347   2.129   4.669   4.214  1.3731 -0.7768  0.9701
 9302SOL    HW229348   2.211   4.639   4.090  0.9628  1.0676  0.2163
 9303SOL     OW29349   1.646   4.016   3.304 -0.4114 -0.3443 -0.5553
 9303SOL    HW129350   1.642   4.107   3.334 -1.1117  0.1864 -2.1424
 9303SOL    HW229351   1.738   4.001   3.286 -0.3535  0.2158 -0.7444
 9304SOL     OW29352   3.122   4.718   3.284  0.2401  0.6093 -0.1898
 9304SOL    HW129353   3.132   4.797   3.336 -1.1182  0.5333  0.2220
 9304SOL    HW229354   3.163   4.649   3.336  1.0415  0.9577 -0.3525
 9305SOL     OW29355   5.185   7.507   4.333  0.0058 -0.1541 -0.5102
 9305SOL    HW129356   5.206   7.418   4.303  1.0338 -0.1677  0.2101
 9305SOL    HW229357   5.109   7.495   4.389 -1.2689 -0.2680 -2.1939
 9306SOL     OW29358   3.882   6.474   3.632  0.5844  0.2785  0.0932
 9306SOL    HW129359   3.850   6.539   3.694  1.6089  1.3365 -0.4358
 9306SOL    HW229360   3.908   6.525   3.555  2.5263 -0.5990  0.1070
 9307SOL     OW29361   3.492   5.802   3.856 -0.2496  0.2431 -0.2622
 9307SOL    HW129362   3.521   5.734   3.916  0.3397  0.1096 -0.6899
 9307SOL    HW229363   3.482   5.880   3.912 -1.5543 -0.3283  0.3447
 9308SOL     OW29364   1.760   5.275   4.179 -0.3076 -0.1179  0.2165
 9308SOL    HW129365   1.842   5.324   4.169  0.3205 -0.7578  1.8177
 9308SOL    HW229366   1.700   5.314   4.115  1.0457  0.7957 -0.5334
 9309SOL     OW29367   2.701   4.638   5.121  0.3302  0.7212  0.6040
 9309SOL    HW129368   2.747   4.575   5.177  3.2863  0.6030 -1.6958
 9309SOL    HW229369   2.701   4.598   5.034 -0.8869  2.4086 -0.2281
 9310SOL     OW29370   3.479   3.763   4.300 -0.4540  0.5468 -0.1662
 9310SOL    HW129371   3.509   3.852   4.281  0.8183  0.0996 -0.3204
 9310SOL    HW229372   3.450   3.728   4.216 -0.8983  0.7862 -0.1156
 9311SOL     OW29373   2.200   3.918   4.043  0.1129  0.0787  0.2188
 9311SOL    HW129374   2.271   3.980   4.060  0.1502  0.0358  0.2191
 9311SOL    HW229375   2.136   3.935   4.113 -0.0435  0.3649  0.0099
 9312SOL     OW29376   3.235   4.030   3.996 -0.2207  0.2180 -0.3704
 9312SOL    HW129377   3.274   3.971   3.932 -0.4783  0.5355 -0.8275
 9312SOL    HW229378   3.236   3.981   4.078 -1.8451 -1.0435 -1.0558
 9313SOL     OW29379   4.344   4.806   3.284  0.3130 -0.5054 -0.7172
 9313SOL    HW129380   4.410   4.752   3.240  0.4336 -1.8730  1.0260
 9313SOL    HW229381   4.326   4.760   3.366 -1.6396  0.6828 -0.4042
 9314SOL     OW29382   2.695   4.238   5.496 -0.6199  0.0754  0.0919
 9314SOL    HW129383   2.694   4.207   5.586 -3.3877  1.7511  0.7843
 9314SOL    HW229384   2.758   4.309   5.495 -1.0224  0.4564  0.9007
 9315SOL     OW29385   1.988   5.426   4.159 -0.0745 -0.3375  0.5148
 9315SOL    HW129386   2.005   5.519   4.168  1.9001 -0.7401  1.4696
 9315SOL    HW229387   1.995   5.408   4.066  0.5714  0.2885  0.4406
 9316SOL     OW29388   2.041   2.517   4.904  0.6575  0.4760  0.0618
 9316SOL    HW129389   2.045   2.612   4.911  0.8868  0.5102 -0.4337
 9316SOL    HW229390   1.951   2.499   4.875 -0.0487  0.3819  2.1949
 9317SOL     OW29391   3.429   5.229   4.637  0.2244  0.7062 -0.7375
 9317SOL    HW129392   3.423   5.305   4.695 -1.3845  2.0060 -2.4503
 9317SOL    HW229393   3.506   5.245   4.583  1.0173  0.1083  0.1985
 9318SOL     OW29394   2.339   4.946   6.079  0.2627  0.3412 -0.4370
 9318SOL    HW129395   2.363   4.901   5.998 -0.8663  0.4678 -0.8553
 9318SOL    HW229396   2.277   4.887   6.122  1.9317 -0.4150  1.0902
 9319SOL     OW29397   4.114   5.977   4.322 -0.7152 -0.2681  0.1516
 9319SOL    HW129398   4.027   6.018   4.326 -0.6391  0.1875 -1.9450
 9319SOL    HW229399   4.099   5.893   4.279 -0.0950 -0.1336 -0.3380
 9320SOL     OW29400   3.781   5.948   3.823  0.2139 -0.0496 -0.4628
 9320SOL    HW129401   3.700   5.972   3.777 -0.5079 -0.1298  0.7012
 9320SOL    HW229402   3.842   5.925   3.754 -0.6620  0.3262 -1.3954
 9321SOL     OW29403   3.875   5.363   4.935  0.5136  0.0695 -0.2023
 9321SOL    HW129404   3.924   5.342   4.856  1.3106  2.1835 -0.3471
 9321SOL    HW229405   3.939   5.354   5.006 -0.4555 -2.8283  0.4185
 9322SOL     OW29406   3.120   5.069   4.118  0.1062  0.6383  0.2625
 9322SOL    HW129407   3.185   5.139   4.127  0.2590  0.5225  0.0842
 9322SOL    HW229408   3.144   5.005   4.184 -0.6937  1.2523  1.1714
 9323SOL     OW29409   1.546   3.882   3.887 -0.7969 -0.1196 -0.1984
 9323SOL    HW129410   1.582   3.856   3.802  0.1287  0.6767 -0.0568
 9323SOL    HW229411   1.468   3.827   3.897 -0.1424 -1.2262 -0.9232
 9324SOL     OW29412   2.305   5.883   4.007  0.6677 -0.1118  0.5694
 9324SOL    HW129413   2.292   5.935   4.086  0.2509 -0.3388  0.6521
 9324SOL    HW229414   2.217   5.861   3.978  0.7720  0.8145 -0.5304
 9325SOL     OW29415   1.432   5.250   4.796 -0.1315 -0.1972 -0.0571
 9325SOL    HW129416   1.439   5.156   4.812 -0.3274 -0.6497 -2.3440
 9325SOL    HW229417   1.461   5.262   4.706 -0.3056  1.9155  0.1158
 9326SOL     OW29418   0.961   4.289   4.934  0.0387  0.1897 -0.8389
 9326SOL    HW129419   1.024   4.273   4.864  0.1781 -0.6995 -0.5213
 9326SOL    HW229420   0.921   4.204   4.951 -1.8666  0.8670 -1.6022
 9327SOL     OW29421   2.534   3.845   3.517 -0.3527  0.0063  0.4467
 9327SOL    HW129422   2.614   3.849   3.570 -0.0154  0.0756 -0.0644
 9327SOL    HW229423   2.517   3.936   3.493 -0.6064 -0.0050  0.5901
 9328SOL     OW29424   2.992   6.376   3.898  0.3665 -0.1668 -0.2601
 9328SOL    HW129425   2.932   6.439   3.940  1.1356  0.4445 -0.0588
 9328SOL    HW229426   3.065   6.430   3.867  2.6112 -1.2506  2.6389
 9329SOL     OW29427   3.722   4.722   3.147  0.4006 -0.0950 -0.4121
 9329SOL    HW129428   3.764   4.687   3.226  0.0589  0.4999  0.0379
 9329SOL    HW229429   3.635   4.748   3.176  1.2850  3.0630 -0.1781
 9330SOL     OW29430   1.315   3.928   4.186  0.4106  0.7543  0.8190
 9330SOL    HW129431   1.325   3.931   4.281  0.6658  1.1598  0.7822
 9330SOL    HW229432   1.387   3.982   4.152  0.4224  0.4756  0.3905
 9331SOL     OW29433   2.831   4.793   3.960 -0.5081 -0.0838  0.3653
 9331SOL    HW129434   2.802   4.787   4.051  0.1406 -0.8754  0.5257
 9331SOL    HW229435   2.903   4.730   3.953  0.0632  0.6368 -0.4552
 9332SOL     OW29436   2.832   5.109   4.900 -0.0544  0.3165  0.2183
 9332SOL    HW129437   2.915   5.065   4.878  1.3652  2.6785  0.5281
 9332SOL    HW229438   2.790   5.123   4.815 -0.4395 -1.3167  0.0915
 9333SOL     OW29439   2.735   2.675   3.963  0.1406  0.4073  0.3640
 9333SOL    HW129440   2.776   2.752   3.925 -0.2024  0.6304  0.4432
 9333SOL    HW229441   2.641   2.695   3.965 -0.1633 -0.6657 -1.1478
 9334SOL     OW29442   1.646   4.312   5.816  0.7387  0.2102  0.6620
 9334SOL    HW129443   1.718   4.312   5.752  0.4688 -0.3960  0.3439
 9334SOL    HW229444   1.688   4.299   5.900  0.8986 -1.9676  0.3080
 9335SOL     OW29445   2.723   4.471   4.882 -0.1705 -0.0290 -0.3252
 9335SOL    HW129446   2.797   4.413   4.899  1.3723  1.4144 -1.7773
 9335SOL    HW229447   2.722   4.483   4.787 -1.5435  0.9105 -0.2323
 9336SOL     OW29448   2.392   3.943   5.678 -0.0969  0.1661 -0.2212
 9336SOL    HW129449   2.371   3.983   5.762  1.2351 -0.9652  0.6984
 9336SOL    HW229450   2.389   3.849   5.694 -0.5036 -0.0857 -1.6283
 9337SOL     OW29451   1.289   1.441   4.569 -0.1960 -0.8846 -0.0365
 9337SOL    HW129452   1.324   1.387   4.640 -0.9582  0.1383  1.1703
 9337SOL    HW229453   1.311   1.394   4.489 -2.2485 -3.9052  0.9839
 9338SOL     OW29454   1.899   3.653   3.658 -0.4319  0.2426 -0.0994
 9338SOL    HW129455   1.964   3.644   3.728 -2.4714  1.1263  2.0620
 9338SOL    HW229456   1.822   3.605   3.690 -1.1887 -0.0247 -2.1423
 9339SOL     OW29457   1.100   3.964   5.255  0.1206  0.4909  0.3100
 9339SOL    HW129458   1.140   3.983   5.170 -0.6497 -1.0284 -0.4263
 9339SOL    HW229459   1.047   4.041   5.275 -0.8691  0.2618 -1.3130
 9340SOL     OW29460   3.938   4.355   3.990  0.3854 -0.0652  0.0104
 9340SOL    HW129461   3.846   4.363   4.015  0.3478  0.3010 -0.2359
 9340SOL    HW229462   3.986   4.396   4.062  0.4051 -0.9353  0.5045
 9341SOL     OW29463   3.712   5.169   3.130  0.2709  0.4404  0.0907
 9341SOL    HW129464   3.657   5.103   3.088  0.7646  1.1167 -1.6793
 9341SOL    HW229465   3.746   5.124   3.208 -1.6217 -0.4444  0.4757
 9342SOL     OW29466   3.330   5.713   5.906 -0.0331  0.0231  0.0255
 9342SOL    HW129467   3.361   5.626   5.929  0.7896  0.2938 -0.0119
 9342SOL    HW229468   3.307   5.706   5.813  3.1901  0.6327 -0.9475
 9343SOL     OW29469   3.053   6.593   5.145 -0.4692 -0.1631 -0.2320
 9343SOL    HW129470   3.077   6.529   5.212 -1.3143 -0.9860 -0.7053
 9343SOL    HW229471   3.134   6.641   5.128  0.0198 -0.6736  0.5836
 9344SOL     OW29472   2.498   4.350   3.457  0.4412 -0.0681 -0.2262
 9344SOL    HW129473   2.442   4.321   3.384  0.9811 -0.3742 -0.5201
 9344SOL    HW229474   2.553   4.275   3.476 -1.6998 -1.0990  2.5169
 9345SOL     OW29475   4.716   4.299   2.903  0.1033 -0.1659 -0.3663
 9345SOL    HW129476   4.700   4.235   2.972  1.8165 -0.0786  0.1405
 9345SOL    HW229477   4.809   4.291   2.883 -0.0286  0.9162 -1.5689
 9346SOL     OW29478   1.638   4.391   3.804 -1.0760 -0.3237 -0.5498
 9346SOL    HW129479   1.583   4.328   3.756 -1.4975  0.3978 -1.0456
 9346SOL    HW229480   1.600   4.476   3.783 -0.5570  0.0977  0.1643
 9347SOL     OW29481   2.401   5.382   4.437 -0.3106  0.1195 -0.1531
 9347SOL    HW129482   2.323   5.402   4.384 -0.2563 -1.2604 -0.7895
 9347SOL    HW229483   2.442   5.309   4.392  0.5745 -0.1049  0.9905
 9348SOL     OW29484   2.776   3.607   4.658  0.4386 -0.0991  0.8083
 9348SOL    HW129485   2.813   3.679   4.709  0.7086  1.3767 -1.3495
 9348SOL    HW229486   2.851   3.555   4.631  0.3447 -0.5626  1.4161
 9349SOL     OW29487   3.312   5.146   5.844 -0.3138 -0.3577  0.1342
 9349SOL    HW129488   3.246   5.155   5.913  0.1972  2.6363  0.3587
 9349SOL    HW229489   3.388   5.109   5.888 -0.1174  1.1800  1.1845
 9350SOL     OW29490   0.327   4.830   3.312 -0.1022  0.0924  0.1293
 9350SOL    HW129491   0.254   4.879   3.349  0.0698  0.2103  0.3140
 9350SOL    HW229492   0.344   4.760   3.375 -1.1840 -1.0115 -0.7410
 9351SOL     OW29493   1.544   5.904   3.536 -0.0673 -0.6729 -0.0054
 9351SOL    HW129494   1.621   5.901   3.593  0.6876  1.8029 -0.7679
 9351SOL    HW229495   1.481   5.845   3.577  1.3846 -0.9503  1.9516
 9352SOL     OW29496   2.433   4.615   2.897 -0.3011  0.0744 -0.1327
 9352SOL    HW129497   2.354   4.562   2.890 -0.3480  0.2470 -0.9846
 9352SOL    HW229498   2.473   4.586   2.979 -0.4888 -1.0475 -0.4132
 9353SOL     OW29499   2.061   4.421   4.843 -0.3006 -0.1780  0.4178
 9353SOL    HW129500   2.136   4.407   4.785  0.4538  0.3856  1.2316
 9353SOL    HW229501   2.024   4.505   4.815 -1.0474 -0.7635 -0.4108
 9354SOL     OW29502   1.020   3.320   5.038 -0.0853 -0.5858  0.4095
 9354SOL    HW129503   1.025   3.415   5.028  0.7190 -0.4506  1.8005
 9354SOL    HW229504   1.105   3.288   5.007  0.5306 -0.6060  2.0196
 9355SOL     OW29505   3.197   4.614   5.492  0.5657  0.7106  0.2710
 9355SOL    HW129506   3.172   4.655   5.575 -0.5623 -0.1164  0.3636
 9355SOL    HW229507   3.282   4.573   5.511  0.8183  1.4222  0.7052
 9356SOL     OW29508   3.880   2.763   3.259 -0.0370 -0.2287 -0.7076
 9356SOL    HW129509   3.892   2.832   3.194  0.1442  0.9832  0.5734
 9356SOL    HW229510   3.911   2.801   3.341  0.8397 -2.1048 -0.0993
 9357SOL     OW29511   1.046   4.928   5.592  0.4614  0.0462  0.5483
 9357SOL    HW129512   0.957   4.901   5.571  0.9974 -2.3235  1.1084
 9357SOL    HW229513   1.080   4.964   5.510 -1.0406  1.2087  0.3914
 9358SOL     OW29514   2.855   4.462   5.269  0.0581 -0.5834  0.0238
 9358SOL    HW129515   2.883   4.446   5.359  0.4733 -2.7731 -0.4502
 9358SOL    HW229516   2.933   4.447   5.216 -0.4901 -0.5846 -0.8102
 9359SOL     OW29517   0.671   6.829   5.108 -0.0682 -0.1417 -0.0947
 9359SOL    HW129518   0.676   6.734   5.121 -0.2171  0.0295  1.4686
 9359SOL    HW229519   0.706   6.843   5.020 -1.1002 -1.7348 -0.8073
 9360SOL     OW29520   0.948   4.243   3.736  0.0319 -0.2904  0.1624
 9360SOL    HW129521   0.938   4.177   3.805 -0.1650 -1.1421 -0.6684
 9360SOL    HW229522   0.859   4.257   3.703  0.0981  0.2685  0.2081
 9361SOL     OW29523   3.274   4.496   6.610 -0.2369 -0.2361 -0.6332
 9361SOL    HW129524   3.207   4.434   6.637  0.3848 -1.5384 -1.9463
 9361SOL    HW229525   3.262   4.506   6.516  1.7559 -1.0277 -1.0415
 9362SOL     OW29526   4.247   5.441   2.736 -0.6560  0.2092  0.6604
 9362SOL    HW129527   4.179   5.374   2.743  0.7472 -1.3647 -0.0839
 9362SOL    HW229528   4.290   5.441   2.822 -0.5982  0.0687  0.6322
 9363SOL     OW29529   3.914   6.632   5.190  0.6634  0.7330 -0.5811
 9363SOL    HW129530   3.839   6.669   5.238  0.6724 -1.5234  1.3700
 9363SOL    HW229531   3.878   6.605   5.106 -0.7647 -0.1870  0.2707
 9364SOL     OW29532   1.253   6.298   4.589 -0.0554  0.2736 -0.0398
 9364SOL    HW129533   1.316   6.363   4.622 -0.6334  0.9147 -0.1859
 9364SOL    HW229534   1.185   6.295   4.656 -0.0778 -0.1162 -0.0804
 9365SOL     OW29535   2.952   5.978   5.647  0.2765 -0.6424  0.4943
 9365SOL    HW129536   2.958   6.029   5.567 -1.0430 -0.4766  0.4743
 9365SOL    HW229537   3.032   5.998   5.695  0.8267 -0.3355 -0.5375
 9366SOL     OW29538   3.021   4.171   3.908 -0.0814  0.1685  0.0719
 9366SOL    HW129539   3.101   4.140   3.951 -0.1501 -0.2914 -0.1234
 9366SOL    HW229540   3.021   4.127   3.823 -0.1803  0.7180 -0.2174
 9367SOL     OW29541   3.429   4.790   3.952  0.2170 -0.1436 -0.3964
 9367SOL    HW129542   3.441   4.709   4.002  1.4186 -0.3794 -1.0372
 9367SOL    HW229543   3.508   4.841   3.969 -1.4600  1.9982  1.8514
 9368SOL     OW29544   2.711   6.504   2.748 -0.2121  0.1659 -0.0276
 9368SOL    HW129545   2.692   6.588   2.790  0.1547 -0.7218  2.0626
 9368SOL    HW229546   2.626   6.463   2.736 -0.4839  1.2540 -2.0717
 9369SOL     OW29547   2.761   5.191   3.323  1.1827 -0.9117 -0.4787
 9369SOL    HW129548   2.807   5.235   3.395  0.5694 -0.6903 -0.2045
 9369SOL    HW229549   2.700   5.132   3.368  0.9905 -0.9770 -0.8273
 9370SOL     OW29550   3.454   6.844   4.939 -0.2827  0.0555 -0.2244
 9370SOL    HW129551   3.470   6.786   5.014 -0.4616  0.2935  0.0026
 9370SOL    HW229552   3.377   6.894   4.964 -0.6506 -0.2171 -0.7846
 9371SOL     OW29553   3.926   6.370   2.941 -0.6688 -0.2300 -0.2291
 9371SOL    HW129554   3.990   6.354   2.871 -0.8510  2.2537 -1.0692
 9371SOL    HW229555   3.895   6.459   2.925 -1.2118  0.2025  2.6527
 9372SOL     OW29556   2.591   4.745   2.724 -0.2799 -0.5140 -0.0620
 9372SOL    HW129557   2.557   4.718   2.639  0.5891 -0.4088 -0.4518
 9372SOL    HW229558   2.543   4.692   2.787 -0.9460 -0.5803 -0.6143
 9373SOL     OW29559   3.530   3.543   4.954  0.2031  0.0719  0.5913
 9373SOL    HW129560   3.591   3.480   4.915  0.3307  0.0835  0.7736
 9373SOL    HW229561   3.481   3.492   5.018 -0.8756 -0.2534 -0.4466
 9374SOL     OW29562   2.243   3.778   6.264  0.2797 -0.2039 -0.1714
 9374SOL    HW129563   2.227   3.685   6.249 -2.6110  0.2036 -0.1123
 9374SOL    HW229564   2.290   3.780   6.348 -0.0546 -1.5967  0.0846
 9375SOL     OW29565   2.632   6.804   4.549  0.4241  0.5390 -0.2450
 9375SOL    HW129566   2.614   6.724   4.501 -1.2026 -0.3994  1.7813
 9375SOL    HW229567   2.633   6.873   4.482  0.8622 -1.0030 -1.8895
 9376SOL     OW29568   1.450   5.626   3.365  0.1124 -0.2696 -0.6868
 9376SOL    HW129569   1.371   5.572   3.369 -0.5159  0.5821 -1.0950
 9376SOL    HW229570   1.483   5.628   3.455  0.6909 -2.0736 -0.8279
 9377SOL     OW29571   3.332   4.012   4.299  0.8253  0.5102 -0.5916
 9377SOL    HW129572   3.426   4.008   4.286  0.8342  0.4924 -0.5261
 9377SOL    HW229573   3.321   4.011   4.395  0.7916  1.3731 -0.5832
 9378SOL     OW29574   4.408   4.525   2.912  0.1581  1.0521  0.0716
 9378SOL    HW129575   4.344   4.564   2.972 -0.7151  1.5378 -1.1301
 9378SOL    HW229576   4.387   4.563   2.827  2.1760  1.3312 -0.3290
 9379SOL     OW29577   0.943   5.388   7.240 -0.2005  0.3889  0.1029
 9379SOL    HW129578   1.018   5.331   7.256 -0.0697  0.5090 -0.0827
 9379SOL    HW229579   0.977   5.476   7.256 -0.2598  0.4559 -0.1450
 9380SOL     OW29580   3.413   6.195   7.033 -0.1939  0.2587 -0.8653
 9380SOL    HW129581   3.427   6.205   7.127  2.3867 -0.4190 -1.0985
 9380SOL    HW229582   3.446   6.276   6.995 -0.2194  0.0882 -1.2528
 9381SOL     OW29583   3.391   5.976   5.395  0.1280 -0.3055 -0.7714
 9381SOL    HW129584   3.303   5.940   5.394 -0.0108 -0.1808  1.9237
 9381SOL    HW229585   3.430   5.946   5.312 -1.6526 -2.3017 -0.9679
 9382SOL     OW29586   2.987   3.783   3.901 -1.0695  0.3807 -0.3324
 9382SOL    HW129587   3.061   3.722   3.905 -0.6970  0.8562  0.4264
 9382SOL    HW229588   3.006   3.839   3.825 -0.8618  0.2349 -0.3882
 9383SOL     OW29589   2.132   4.677   3.757 -0.0304  0.0030 -0.3050
 9383SOL    HW129590   2.099   4.746   3.814 -1.9444  1.3489 -2.8153
 9383SOL    HW229591   2.063   4.610   3.757 -0.6743  0.6115 -1.9141
 9384SOL     OW29592   3.400   4.500   2.335  0.4296 -0.4067 -0.6209
 9384SOL    HW129593   3.308   4.493   2.309 -0.4347  0.4906  1.9394
 9384SOL    HW229594   3.420   4.416   2.376  0.2252 -0.0016  0.3214
 9385SOL     OW29595   2.451   4.307   4.918  0.0479  0.1846 -0.2821
 9385SOL    HW129596   2.527   4.303   4.976 -0.6465  0.5747  0.6797
 9385SOL    HW229597   2.486   4.285   4.832  1.0594 -0.6806  0.3148
 9386SOL     OW29598   2.419   1.696   5.723 -0.5141  0.5009 -0.2948
 9386SOL    HW129599   2.396   1.754   5.796  0.1494 -1.2137  1.3747
 9386SOL    HW229600   2.383   1.611   5.747 -2.2340  0.3211 -3.0979
 9387SOL     OW29601   1.706   3.802   4.102 -0.1398  0.4222 -0.4615
 9387SOL    HW129602   1.760   3.880   4.113 -1.3241  1.1448  0.4036
 9387SOL    HW229603   1.657   3.818   4.021  1.7559 -0.7774 -1.9449
 9388SOL     OW29604   3.167   3.758   4.261 -0.5187 -0.4859 -0.0016
 9388SOL    HW129605   3.195   3.689   4.201  1.7591  0.0155  0.3945
 9388SOL    HW229606   3.248   3.793   4.297 -1.7149  0.9048  1.5068
 9389SOL     OW29607   3.457   4.735   3.229  0.6346 -0.0848  0.2504
 9389SOL    HW129608   3.396   4.785   3.284  1.8653  0.7316  0.9028
 9389SOL    HW229609   3.493   4.669   3.288  1.2367  0.1720  0.1746
 9390SOL     OW29610   0.666   4.193   6.732 -0.2327 -0.1097  0.0502
 9390SOL    HW129611   0.625   4.190   6.646  1.8345 -1.3354 -0.9830
 9390SOL    HW229612   0.609   4.250   6.784 -2.6994 -1.0576 -1.4573
 9391SOL     OW29613   4.235   4.850   2.988 -0.2041  0.4331 -0.3574
 9391SOL    HW129614   4.159   4.905   3.009 -0.1917 -0.0992  1.2250
 9391SOL    HW229615   4.237   4.785   3.058  2.1317  0.8606  0.0628
 9392SOL     OW29616   1.481   5.439   5.387  0.1995 -0.1596 -0.1727
 9392SOL    HW129617   1.485   5.496   5.464  1.3252 -1.1032  0.4951
 9392SOL    HW229618   1.438   5.359   5.418  0.6941 -0.5656 -0.5150
 9393SOL     OW29619   3.289   4.849   5.336 -0.4424  0.3736  0.0961
 9393SOL    HW129620   3.211   4.899   5.360 -0.3795  0.4334  0.1778
 9393SOL    HW229621   3.271   4.760   5.366 -0.6438  0.2987 -0.2436
 9394SOL     OW29622   2.321   4.586   4.955  0.4098 -0.5166 -0.4565
 9394SOL    HW129623   2.359   4.498   4.943  0.2632 -0.4698 -1.2919
 9394SOL    HW229624   2.376   4.643   4.901  0.4764 -0.0982  0.0503
 9395SOL     OW29625   2.626   3.224   4.776 -0.0860 -0.0507  0.7154
 9395SOL    HW129626   2.598   3.139   4.742  0.2825 -0.4118  1.3124
 9395SOL    HW229627   2.692   3.254   4.713  0.0590 -0.3765  0.7111
 9396SOL     OW29628   2.508   5.670   4.233  0.1648  0.4245 -0.0594
 9396SOL    HW129629   2.534   5.630   4.150  3.9193  1.3910  0.5019
 9396SOL    HW229630   2.532   5.762   4.223 -1.4530  1.0366  1.3319
 9397SOL     OW29631   0.763   5.217   3.500 -0.2413 -0.7250  0.5008
 9397SOL    HW129632   0.728   5.261   3.422  2.0461 -0.7526 -0.6238
 9397SOL    HW229633   0.728   5.128   3.496 -0.5034 -0.5939 -0.2561
 9398SOL     OW29634   2.255   4.968   2.762 -0.3905 -0.3166  0.2045
 9398SOL    HW129635   2.308   5.047   2.778 -0.0958 -0.6834  1.0895
 9398SOL    HW229636   2.180   4.978   2.819 -1.6648  0.5183 -1.5267
 9399SOL     OW29637   4.114   6.350   3.861  0.4722  0.3745  0.1661
 9399SOL    HW129638   4.160   6.310   3.934 -0.4202 -0.8467  0.0894
 9399SOL    HW229639   4.029   6.306   3.859 -0.7093  2.5571  0.2861
 9400SOL     OW29640   3.072   5.066   2.872  0.3707 -0.2449 -0.1204
 9400SOL    HW129641   3.069   5.161   2.876 -0.0852 -0.2959  1.7458
 9400SOL    HW229642   3.160   5.045   2.841  1.1155  0.7686  1.2545
 9401SOL     OW29643   3.322   4.864   5.067  0.1914 -0.2299  0.0701
 9401SOL    HW129644   3.373   4.940   5.037 -0.4354 -0.2080 -0.9943
 9401SOL    HW229645   3.325   4.870   5.163  1.0297  0.5394  0.0177
 9402SOL     OW29646   1.777   4.698   5.625  0.2918  0.4017  0.4628
 9402SOL    HW129647   1.721   4.628   5.593  1.0442 -0.3974  0.8528
 9402SOL    HW229648   1.856   4.653   5.655  1.1246  1.4930 -0.0369
 9403SOL     OW29649   3.101   5.023   5.490 -0.0083  0.2950  0.0618
 9403SOL    HW129650   3.184   5.058   5.456  0.4374 -1.3479 -0.6118
 9403SOL    HW229651   3.039   5.033   5.418 -0.0820  0.3655  0.1337
 9404SOL     OW29652   3.739   3.789   4.144  0.4823  0.7791  0.0574
 9404SOL    HW129653   3.829   3.813   4.168  0.7979  1.5569 -1.7624
 9404SOL    HW229654   3.685   3.837   4.207  1.2962  1.6029  0.1669
 9405SOL     OW29655   3.113   2.621   3.914 -0.4836  0.3669 -0.2439
 9405SOL    HW129656   3.081   2.668   3.990 -0.6277 -0.9590  0.5457
 9405SOL    HW229657   3.038   2.616   3.855 -0.7521  0.2561  0.1053
 9406SOL     OW29658   4.131   4.965   4.525  0.0635  0.3629  0.4889
 9406SOL    HW129659   4.111   4.877   4.557 -0.6406  0.5116  0.4788
 9406SOL    HW229660   4.045   5.003   4.504  0.4702  0.3930 -1.2664
 9407SOL     OW29661   0.596   4.788   6.148 -0.3093  0.1804  0.1534
 9407SOL    HW129662   0.622   4.874   6.181  1.0257  0.3420 -1.2286
 9407SOL    HW229663   0.651   4.726   6.196  0.7524  0.3298 -0.8234
 9408SOL     OW29664   4.075   5.410   3.539  0.1968  0.1241  0.6396
 9408SOL    HW129665   4.013   5.367   3.597  0.1271 -0.1741  0.3509
 9408SOL    HW229666   4.055   5.374   3.452  0.6522  0.1591  0.5166
 9409SOL     OW29667   4.872   3.361   5.266  0.7528  0.2035 -0.0028
 9409SOL    HW129668   4.901   3.379   5.355 -2.1422  0.6991  0.9463
 9409SOL    HW229669   4.855   3.447   5.228 -0.1851 -0.0674 -0.2209
 9410SOL     OW29670   2.523   3.003   4.653 -0.3580  0.0064 -0.0925
 9410SOL    HW129671   2.464   2.986   4.579 -0.2346  1.1944 -0.4905
 9410SOL    HW229672   2.588   2.933   4.649 -0.2275  0.1828 -1.2459
 9411SOL     OW29673   1.737   5.087   5.108 -0.8542 -0.6764 -0.1138
 9411SOL    HW129674   1.810   5.035   5.074 -0.3774 -0.0092 -0.1193
 9411SOL    HW229675   1.772   5.176   5.116 -1.7759 -0.2681 -0.4636
 9412SOL     OW29676   3.947   4.046   4.204 -0.1149  0.2349  0.1680
 9412SOL    HW129677   3.992   4.131   4.201  0.1918  0.2037  2.3423
 9412SOL    HW229678   4.015   3.982   4.181 -0.1520  0.5075 -0.7265
 9413SOL     OW29679   0.668   5.781   4.553 -0.4002  0.2482 -0.1478
 9413SOL    HW129680   0.734   5.719   4.525 -2.5792 -2.3644  0.0822
 9413SOL    HW229681   0.622   5.806   4.472 -1.4590 -0.9021  0.0618
 9414SOL     OW29682   2.725   7.001   3.410  0.1038  0.3133  0.3126
 9414SOL    HW129683   2.663   7.074   3.406  1.2531  1.2998 -0.3960
 9414SOL    HW229684   2.719   6.968   3.499 -1.0917  0.6841  0.3786
 9415SOL     OW29685   2.980   5.312   5.883 -0.1481 -0.1403  0.1462
 9415SOL    HW129686   3.062   5.345   5.919 -0.0409 -0.0391 -0.1859
 9415SOL    HW229687   2.940   5.264   5.955  1.2836 -2.1663 -0.2916
 9416SOL     OW29688   3.027   4.739   5.685 -0.1769 -0.1817 -0.2897
 9416SOL    HW129689   3.041   4.825   5.725  1.5987 -0.4231 -0.2955
 9416SOL    HW229690   2.973   4.756   5.608 -1.1094  0.7083  0.5347
 9417SOL     OW29691   1.213   3.417   7.011  0.3113 -0.7992  0.2844
 9417SOL    HW129692   1.306   3.436   7.025  0.1005 -0.6732  1.6512
 9417SOL    HW229693   1.203   3.418   6.915  1.5293  0.0686  0.1292
 9418SOL     OW29694   4.101   4.733   6.411 -0.1101  0.1980  0.4493
 9418SOL    HW129695   4.072   4.711   6.500 -0.1295  1.7836  0.8660
 9418SOL    HW229696   4.024   4.720   6.356 -0.8044  1.4683  1.0658
 9419SOL     OW29697   2.483   3.876   7.849  0.4595 -0.2593  0.5661
 9419SOL    HW129698   2.520   3.790   7.831 -0.8241 -0.5913 -0.6025
 9419SOL    HW229699   2.495   3.926   7.768 -1.7370 -0.4387  0.0695
 9420SOL     OW29700   1.733   5.448   7.175  0.7608 -0.4846  0.1532
 9420SOL    HW129701   1.709   5.396   7.098 -0.5476  1.8352 -1.0877
 9420SOL    HW229702   1.650   5.472   7.215  1.2844  1.1698  0.3164
 9421SOL     OW29703   1.410   4.294   5.671  0.0074 -0.1815 -0.3306
 9421SOL    HW129704   1.482   4.273   5.731  0.0667 -0.2605 -0.4310
 9421SOL    HW229705   1.452   4.310   5.587 -0.0899 -0.1967 -0.3823
 9422SOL     OW29706   1.454   5.087   7.050 -0.2236 -0.3441  0.5581
 9422SOL    HW129707   1.522   5.033   7.009  1.2300  0.2372  2.1143
 9422SOL    HW229708   1.377   5.074   6.994  1.7746  0.9261 -2.7558
 9423SOL     OW29709   2.809   3.188   5.102  0.3137 -0.3532 -0.2754
 9423SOL    HW129710   2.813   3.258   5.037 -2.5440 -0.3288 -0.5402
 9423SOL    HW229711   2.776   3.113   5.054 -0.3390 -0.7776  0.8169
 9424SOL     OW29712   2.464   4.317   7.604  0.2747  0.5304 -0.7051
 9424SOL    HW129713   2.465   4.333   7.698  1.6349  0.2997 -0.6555
 9424SOL    HW229714   2.518   4.388   7.568  0.2612  0.2703 -1.2445
 9425SOL     OW29715   1.709   3.689   7.225  0.0408  0.3036  0.3367
 9425SOL    HW129716   1.713   3.777   7.263  1.3336  0.2863  0.2783
 9425SOL    HW229717   1.649   3.697   7.151  0.3289  1.1947  0.1936
 9426SOL     OW29718   1.817   5.171   4.584 -0.1037  0.1724  0.1784
 9426SOL    HW129719   1.775   5.106   4.642 -0.1287  1.5821  1.8194
 9426SOL    HW229720   1.886   5.210   4.638  1.3896  0.0217 -1.4983
 9427SOL     OW29721   2.394   4.302   6.169 -0.7058  0.4861  0.3366
 9427SOL    HW129722   2.304   4.328   6.151 -0.9008  0.2234  0.9147
 9427SOL    HW229723   2.387   4.229   6.231 -0.0994  0.4950  0.4283
 9428SOL     OW29724   0.943   6.774   5.959  0.0099 -0.1197 -0.3865
 9428SOL    HW129725   0.868   6.728   5.923 -0.0738  0.5138 -1.0437
 9428SOL    HW229726   1.016   6.712   5.951 -0.1584 -0.2444 -1.0082
 9429SOL     OW29727   0.288   6.096   6.190 -0.3879  0.1700 -0.6106
 9429SOL    HW129728   0.244   6.090   6.105 -1.1496 -0.4051 -0.1959
 9429SOL    HW229729   0.216   6.106   6.252 -0.0143 -1.7148  0.1872
 9430SOL     OW29730   2.125   5.430   7.173 -0.4306 -0.0494  0.0628
 9430SOL    HW129731   2.186   5.356   7.167 -1.0777 -0.5027 -1.7376
 9430SOL    HW229732   2.039   5.389   7.179 -0.9754  0.4342 -2.8694
 9431SOL     OW29733   3.220   5.515   5.735  0.4983  0.1998 -0.1039
 9431SOL    HW129734   3.277   5.447   5.698  0.8334  0.3911  0.0525
 9431SOL    HW229735   3.188   5.477   5.817  1.2957  0.5171  0.3683
 9432SOL     OW29736   3.541   3.589   6.941 -0.3209 -0.3981 -0.1989
 9432SOL    HW129737   3.451   3.589   6.910 -1.6762 -0.8638  3.2545
 9432SOL    HW229738   3.570   3.680   6.930 -0.8939 -0.3873 -1.9744
 9433SOL     OW29739   2.783   5.166   4.657 -0.1041 -0.2499 -0.3195
 9433SOL    HW129740   2.782   5.254   4.619 -1.5937  0.0675  0.4136
 9433SOL    HW229741   2.796   5.108   4.582  2.0366  0.6125 -0.6860
 9434SOL     OW29742   4.476   6.146   6.989  0.5119 -0.0991  0.0600
 9434SOL    HW129743   4.407   6.084   6.967  0.9136 -0.3493 -0.5063
 9434SOL    HW229744   4.535   6.145   6.913  1.0914  0.1766  0.4984
 9435SOL     OW29745   3.451   5.093   4.989 -0.3746  0.2139  0.5133
 9435SOL    HW129746   3.505   5.036   4.934 -1.4636  1.0859 -1.5506
 9435SOL    HW229747   3.471   5.182   4.959 -2.2119  0.6076  0.3415
 9436SOL     OW29748   1.506   3.578   6.467  0.1689 -0.8465 -0.3088
 9436SOL    HW129749   1.422   3.585   6.512  0.5080 -2.0549  0.5751
 9436SOL    HW229750   1.493   3.623   6.384 -1.2949 -0.8429 -0.1020
 9437SOL     OW29751   3.459   5.942   7.000 -0.1591  0.2476 -0.1497
 9437SOL    HW129752   3.469   6.036   7.019  0.5772  0.3339 -0.9204
 9437SOL    HW229753   3.403   5.940   6.922 -1.6569 -0.0387  0.8847
 9438SOL     OW29754   3.379   6.348   5.648  0.7317 -0.2710  0.5190
 9438SOL    HW129755   3.305   6.386   5.695 -0.7080 -1.8555 -0.3657
 9438SOL    HW229756   3.427   6.299   5.716  0.9929  0.7676  1.1000
 9439SOL     OW29757   2.529   4.412   5.909 -0.0914 -0.6526 -0.1834
 9439SOL    HW129758   2.557   4.402   5.818  0.0900 -1.6196 -0.0377
 9439SOL    HW229759   2.447   4.364   5.914  0.0851 -0.9223  0.2423
 9440SOL     OW29760   0.337   5.395   5.407  0.6235 -0.2534  0.1080
 9440SOL    HW129761   0.342   5.435   5.493 -0.6718 -0.9916  0.5494
 9440SOL    HW229762   0.337   5.301   5.423  0.2028 -0.4016 -0.6798
 9441SOL     OW29763   2.747   4.914   5.162 -0.2970  0.5189  0.4406
 9441SOL    HW129764   2.708   4.971   5.096 -1.0879  0.1037  0.5397
 9441SOL    HW229765   2.701   4.830   5.152 -0.6696  0.5504  1.7332
 9442SOL     OW29766   2.009   3.805   7.740 -0.3990  0.0975 -0.0255
 9442SOL    HW129767   2.102   3.829   7.736 -0.4911  0.5132  0.2890
 9442SOL    HW229768   1.986   3.784   7.649  0.0194 -0.0828 -0.0936
 9443SOL     OW29769   3.952   5.552   5.733 -0.5860  0.0314 -0.0621
 9443SOL    HW129770   4.022   5.614   5.750 -0.5992 -0.1889  0.8442
 9443SOL    HW229771   3.971   5.517   5.646  0.7453 -0.4493  0.4083
 9444SOL     OW29772   4.630   5.690   6.341 -0.1881 -0.0914 -0.0983
 9444SOL    HW129773   4.689   5.695   6.417  0.1574 -1.7738 -0.2101
 9444SOL    HW229774   4.552   5.646   6.374 -0.2035 -0.4614 -0.6128
 9445SOL     OW29775   2.493   4.725   4.764 -0.2083 -0.3816 -0.4046
 9445SOL    HW129776   2.563   4.660   4.749 -0.3959 -0.7390  0.2034
 9445SOL    HW229777   2.491   4.777   4.684  0.6151 -0.5034 -0.5150
 9446SOL     OW29778   4.377   6.921   5.219  0.3871 -0.2985 -0.2343
 9446SOL    HW129779   4.436   6.893   5.149  1.0826 -1.9824  0.9804
 9446SOL    HW229780   4.391   7.016   5.225 -0.5139  0.1255 -3.0653
 9447SOL     OW29781   3.484   4.364   6.302 -0.2668 -0.2071 -0.2286
 9447SOL    HW129782   3.400   4.390   6.339 -0.5891 -0.0405 -1.0552
 9447SOL    HW229783   3.498   4.424   6.230  0.0103 -0.9502 -0.8083
 9448SOL     OW29784   2.480   3.483   7.979 -0.6704 -0.3446  0.0758
 9448SOL    HW129785   2.479   3.534   8.060 -0.3930 -2.3395  1.3928
 9448SOL    HW229786   2.560   3.511   7.934 -0.6817  0.5854  0.6154
 9449SOL     OW29787   2.150   4.948   7.288 -0.1564 -0.0044 -0.0784
 9449SOL    HW129788   2.191   5.004   7.222  1.2177 -0.5486  0.2798
 9449SOL    HW229789   2.191   4.863   7.276 -0.6772 -0.3825  0.7618
 9450SOL     OW29790   2.531   3.849   6.099 -0.2584  0.6872 -0.1041
 9450SOL    HW129791   2.535   3.760   6.065  1.9710  1.0743 -1.0516
 9450SOL    HW229792   2.622   3.871   6.119 -0.9330  2.2381  1.5399
 9451SOL     OW29793   0.875   4.920   5.341  0.3835  0.5612  0.7403
 9451SOL    HW129794   0.946   4.973   5.306  2.1659 -1.6107  0.8341
 9451SOL    HW229795   0.796   4.953   5.298  1.6498  2.0162 -0.5653
 9452SOL     OW29796   0.643   5.078   5.953 -0.1335  0.6512 -0.4036
 9452SOL    HW129797   0.651   5.029   5.871 -0.6256 -0.5046  0.2095
 9452SOL    HW229798   0.725   5.059   5.999 -0.9018 -0.8320  0.4483
 9453SOL     OW29799   2.480   5.838   6.733 -0.1677  0.3244  0.0159
 9453SOL    HW129800   2.458   5.753   6.695 -0.2205 -0.1109  0.9735
 9453SOL    HW229801   2.401   5.891   6.722  0.1952  0.5948 -1.4747
 9454SOL     OW29802   2.539   4.671   6.214  0.3058 -0.1336  0.6309
 9454SOL    HW129803   2.463   4.662   6.272 -0.8214 -0.7512 -0.9011
 9454SOL    HW229804   2.569   4.761   6.229  1.1216 -0.7745  3.4072
 9455SOL     OW29805   2.774   4.701   6.849 -0.0403  0.2809  0.1475
 9455SOL    HW129806   2.842   4.768   6.855  0.2698 -0.0572  0.3563
 9455SOL    HW229807   2.785   4.665   6.761 -0.6648  0.9891 -0.2364
 9456SOL     OW29808   2.712   4.438   6.376 -0.6093  0.3763  0.1920
 9456SOL    HW129809   2.804   4.463   6.368 -0.1775 -1.2567 -0.3095
 9456SOL    HW229810   2.709   4.382   6.454 -0.9636 -0.4450 -0.3966
 9457SOL     OW29811   2.311   5.324   4.076  0.3896  0.2092  0.4521
 9457SOL    HW129812   2.402   5.349   4.097  0.3672  0.3592  0.3745
 9457SOL    HW229813   2.266   5.408   4.066  0.4883  0.1475 -0.5966
 9458SOL     OW29814   2.115   5.049   7.971  0.1518  0.3169  0.3934
 9458SOL    HW129815   2.130   5.143   7.962  1.8181  0.0852  0.5185
 9458SOL    HW229816   2.161   5.025   8.051  1.9140 -1.0310 -0.9426
 9459SOL     OW29817   3.704   4.341   6.475  0.0332  0.1294  0.1684
 9459SOL    HW129818   3.695   4.253   6.514 -0.1894  1.0108  2.2528
 9459SOL    HW229819   3.620   4.358   6.433  0.1745 -0.7573 -0.4942
 9460SOL     OW29820   1.279   4.055   6.910 -0.0727 -0.0271 -0.3983
 9460SOL    HW129821   1.199   4.063   6.858 -0.7864 -0.8751  0.5273
 9460SOL    HW229822   1.335   3.996   6.859 -0.9480 -1.2208 -0.0424
 9461SOL     OW29823   1.599   4.145   4.341 -0.0780  0.4579 -0.3618
 9461SOL    HW129824   1.681   4.184   4.311 -1.5901  2.6098 -2.0883
 9461SOL    HW229825   1.560   4.106   4.262 -0.3576 -1.2946  0.5951
 9462SOL     OW29826   2.858   3.357   7.398  0.5563 -0.6097  0.1168
 9462SOL    HW129827   2.902   3.409   7.331 -1.2164  1.2828  0.3227
 9462SOL    HW229828   2.929   3.325   7.454  1.7587  3.4809  1.2818
 9463SOL     OW29829   3.487   6.563   7.659 -0.7517 -0.2432  0.0696
 9463SOL    HW129830   3.427   6.549   7.586 -1.2989 -0.4609  0.5571
 9463SOL    HW229831   3.440   6.620   7.719  0.5786  1.9093 -0.8072
 9464SOL     OW29832   1.146   2.320   6.408 -0.0491 -0.0051 -0.0366
 9464SOL    HW129833   1.194   2.328   6.491 -2.6589 -0.4312  1.6570
 9464SOL    HW229834   1.054   2.315   6.435 -0.8987 -1.8388 -2.8848
 9465SOL     OW29835   5.148   7.732   6.274 -0.2088 -0.1379 -0.0302
 9465SOL    HW129836   5.079   7.676   6.309 -0.2947 -0.7468 -1.1188
 9465SOL    HW229837   5.192   7.678   6.209  0.0213  0.8995 -0.7635
 9466SOL     OW29838   2.792   5.472   5.739  0.3533 -0.4422  0.2663
 9466SOL    HW129839   2.820   5.425   5.817 -0.8721 -0.6156  0.6226
 9466SOL    HW229840   2.867   5.525   5.714  0.5819  0.0083  1.8662
 9467SOL     OW29841   2.431   6.162   4.690  0.1150  0.0095 -0.2529
 9467SOL    HW129842   2.468   6.209   4.764 -1.8685  2.9379 -0.9683
 9467SOL    HW229843   2.488   6.183   4.616  0.2194 -0.1892 -0.2305
 9468SOL     OW29844   1.911   2.700   6.451  0.1764  0.1510 -0.6291
 9468SOL    HW129845   1.924   2.717   6.544  1.2389 -3.2577  0.0079
 9468SOL    HW229846   1.944   2.610   6.439 -1.2805 -0.0706 -4.0032
 9469SOL     OW29847   3.611   4.234   7.175 -0.3993  0.3437 -0.2595
 9469SOL    HW129848   3.706   4.233   7.186 -0.5353 -1.7705  1.2189
 9469SOL    HW229849   3.578   4.288   7.247 -0.3929 -0.2329  0.1805
 9470SOL     OW29850   1.886   4.327   6.645 -0.4650 -0.5221 -0.2832
 9470SOL    HW129851   1.933   4.252   6.609  0.7395 -0.7109  1.5651
 9470SOL    HW229852   1.956   4.388   6.672 -1.3689  0.3293  0.1881
 9471SOL     OW29853   2.192   2.865   8.035  0.0273  1.0422 -0.5091
 9471SOL    HW129854   2.275   2.879   7.991  0.6783  0.6767  0.5616
 9471SOL    HW229855   2.191   2.771   8.054  0.0056  1.2652  0.6845
 9472SOL     OW29856   2.805   4.464   6.032  0.7329  0.6469 -0.0728
 9472SOL    HW129857   2.825   4.395   5.969  1.0931  1.1241 -0.4846
 9472SOL    HW229858   2.889   4.503   6.053  0.6725  0.1964  1.0642
 9473SOL     OW29859   2.007   4.345   7.184 -0.1031  0.1062 -0.2064
 9473SOL    HW129860   2.011   4.373   7.092 -1.2103  0.5252 -0.1363
 9473SOL    HW229861   1.969   4.419   7.230 -0.1424 -0.3454  0.4973
 9474SOL     OW29862   2.903   4.760   6.277  0.5458  0.3454  0.4916
 9474SOL    HW129863   2.924   4.667   6.282 -2.1420 -0.4765 -1.2628
 9474SOL    HW229864   2.959   4.801   6.344  3.4033 -2.1553 -0.1269
 9475SOL     OW29865   1.264   4.293   6.580  0.3352  0.0705 -0.4962
 9475SOL    HW129866   1.331   4.349   6.542  1.8200 -1.5522 -0.4125
 9475SOL    HW229867   1.184   4.317   6.534  0.6704  2.8700  0.2091
 9476SOL     OW29868   2.513   3.582   6.514  0.4294 -0.1799  0.0512
 9476SOL    HW129869   2.587   3.560   6.570 -0.3594  0.3672  1.3561
 9476SOL    HW229870   2.493   3.673   6.536 -1.9279 -0.9169  1.3129
 9477SOL     OW29871   1.689   4.654   5.012 -0.7162  0.0463 -0.0928
 9477SOL    HW129872   1.647   4.637   4.927 -1.7042  0.5286  0.2886
 9477SOL    HW229873   1.625   4.706   5.060 -0.2124 -0.3300  1.0019
 9478SOL     OW29874   2.020   3.924   5.565 -0.1700  0.2067  0.0619
 9478SOL    HW129875   2.093   3.967   5.521 -1.0110  0.0015 -1.5891
 9478SOL    HW229876   2.061   3.854   5.615  1.1587  2.4072  2.2980
 9479SOL     OW29877   2.969   3.680   6.905 -0.2012 -0.2507 -0.0893
 9479SOL    HW129878   3.060   3.691   6.929 -0.4189  0.6371  0.3658
 9479SOL    HW229879   2.964   3.708   6.814 -0.2059  0.6957  0.1974
 9480SOL     OW29880   4.304   5.901   6.277 -0.0697 -0.4679  0.1125
 9480SOL    HW129881   4.357   5.880   6.200 -1.8953  0.2152 -1.3942
 9480SOL    HW229882   4.254   5.821   6.294 -2.5390  0.5024 -1.9063
 9481SOL     OW29883   1.103   5.196   6.467  0.4134 -0.0559 -0.4652
 9481SOL    HW129884   1.069   5.244   6.391  1.1421 -0.1511 -0.8644
 9481SOL    HW229885   1.193   5.173   6.442 -0.0043 -1.8962 -0.4288
 9482SOL     OW29886   3.617   7.645   3.921  0.4386  0.2732 -0.2796
 9482SOL    HW129887   3.561   7.593   3.979 -0.8171  1.3178 -0.5244
 9482SOL    HW229888   3.679   7.581   3.885  2.4146 -0.1826  3.4203
 9483SOL     OW29889   1.093   6.321   6.131  0.2313  0.1010 -0.5731
 9483SOL    HW129890   1.128   6.231   6.128  0.7622  0.2559  0.4574
 9483SOL    HW229891   1.097   6.351   6.040  4.0673  0.5690 -0.4434
 9484SOL     OW29892   2.525   5.279   5.866 -0.1428 -0.3130  0.2108
 9484SOL    HW129893   2.560   5.348   5.811 -1.1011 -0.6093 -0.8075
 9484SOL    HW229894   2.570   5.200   5.838  0.2191 -0.2782  0.6777
 9485SOL     OW29895   2.027   4.545   5.457 -0.1878 -0.6023 -0.1790
 9485SOL    HW129896   1.945   4.577   5.418 -1.1822 -1.8549  0.7741
 9485SOL    HW229897   2.075   4.507   5.384 -0.9160 -0.7335 -0.6076
 9486SOL     OW29898   2.298   4.566   5.921  0.5293 -0.9836  0.3601
 9486SOL    HW129899   2.287   4.596   5.831  0.1442 -1.0571  0.3786
 9486SOL    HW229900   2.385   4.527   5.924  0.3857 -1.3372 -0.0857
 9487SOL     OW29901   0.531   2.612   6.082 -0.1944  0.0632 -0.8944
 9487SOL    HW129902   0.588   2.664   6.025 -2.0841  1.8556 -1.2707
 9487SOL    HW229903   0.550   2.643   6.170  0.7872 -0.7722 -0.7934
 9488SOL     OW29904   3.746   5.425   5.824  0.3469  0.9615 -0.6643
 9488SOL    HW129905   3.811   5.483   5.783  0.6197  1.4335  0.4084
 9488SOL    HW229906   3.796   5.347   5.849  0.3895  1.0888 -0.3476
 9489SOL     OW29907   3.636   5.167   6.478  0.0011 -0.2214 -0.4881
 9489SOL    HW129908   3.698   5.154   6.550  1.1547 -0.8878 -1.5644
 9489SOL    HW229909   3.616   5.079   6.447 -1.7691 -0.0410  0.0374
 9490SOL     OW29910   4.325   3.907   5.730  0.2210 -0.3284 -0.0404
 9490SOL    HW129911   4.369   3.835   5.775 -0.3844 -0.1555  0.8464
 9490SOL    HW229912   4.285   3.958   5.800 -1.2458 -0.3860 -0.7888
 9491SOL     OW29913   1.649   5.872   6.199 -0.1416  0.2572 -0.1017
 9491SOL    HW129914   1.671   5.964   6.183  2.4743 -0.7043 -2.9558
 9491SOL    HW229915   1.556   5.865   6.176  0.0890  1.8420 -1.6978
 9492SOL     OW29916   2.688   4.207   6.086 -0.4489  0.0381 -0.5110
 9492SOL    HW129917   2.710   4.149   6.013 -1.1180  1.2147 -1.6911
 9492SOL    HW229918   2.647   4.149   6.151  0.7373 -1.1436 -0.7641
 9493SOL     OW29919   4.158   6.523   5.671  0.5551  0.4420  0.4525
 9493SOL    HW129920   4.093   6.517   5.601 -0.5528 -0.4356  1.5092
 9493SOL    HW229921   4.227   6.462   5.646  0.1079  0.0487  0.1705
 9494SOL     OW29922   2.268   4.475   7.131 -0.1512 -0.9269  0.7340
 9494SOL    HW129923   2.258   4.533   7.056  0.8835 -0.1503  1.1722
 9494SOL    HW229924   2.192   4.494   7.187 -0.1819 -0.4895  0.5452
 9495SOL     OW29925   3.328   4.712   6.803  0.0057  0.0530 -0.0595
 9495SOL    HW129926   3.293   4.672   6.883  2.2194 -1.1354  0.4122
 9495SOL    HW229927   3.337   4.638   6.742 -2.0039  1.0001 -1.6161
 9496SOL     OW29928   3.644   4.898   6.372  0.5399  0.1574 -0.2008
 9496SOL    HW129929   3.637   4.846   6.292  0.6593 -0.3374  0.1097
 9496SOL    HW229930   3.592   4.850   6.437  0.3147  0.6381 -0.0173
 9497SOL     OW29931   2.048   3.048   6.047  0.3860 -0.1859  0.3904
 9497SOL    HW129932   2.090   2.962   6.041 -0.0792 -0.3952  0.0723
 9497SOL    HW229933   2.020   3.055   6.139  2.9824  0.8591  1.1966
 9498SOL     OW29934   2.925   3.758   7.567  0.2197 -0.2159 -0.1090
 9498SOL    HW129935   2.942   3.788   7.656 -0.9701  2.2446 -0.6099
 9498SOL    HW229936   3.004   3.780   7.518 -0.3168  1.5080 -0.2819
 9499SOL     OW29937   2.049   4.968   5.493  0.7330  0.1386  0.0004
 9499SOL    HW129938   2.141   4.940   5.497  1.1267  1.2469 -0.9022
 9499SOL    HW229939   2.048   5.037   5.428 -0.7092  0.3417  0.2149
 9500SOL     OW29940   1.402   7.729   7.190 -0.3496 -0.1026  0.5304
 9500SOL    HW129941   1.312   7.761   7.196  0.3444  1.9409  0.6054
 9500SOL    HW229942   1.416   7.714   7.097 -0.1717  1.4506  0.2917
 9501SOL     OW29943   3.378   4.190   7.418  0.2305  0.0954  0.1889
 9501SOL    HW129944   3.288   4.187   7.450 -0.6617 -1.8637 -2.1362
 9501SOL    HW229945   3.419   4.113   7.457  0.3695  0.0188 -0.1059
 9502SOL     OW29946   1.031   4.235   5.859 -0.2998 -0.4839 -0.6637
 9502SOL    HW129947   1.079   4.179   5.799 -0.6921  0.1208 -1.5579
 9502SOL    HW229948   1.081   4.316   5.863  0.3276 -0.9036  0.7154
 9503SOL     OW29949   0.351   6.643   6.108 -0.4035 -0.4188 -0.0409
 9503SOL    HW129950   0.301   6.562   6.124 -2.8956  0.3162 -3.1034
 9503SOL    HW229951   0.284   6.710   6.098  1.5294  1.7312  0.6074
 9504SOL     OW29952   0.999   3.530   5.709  0.8476  0.3170 -0.0311
 9504SOL    HW129953   0.982   3.573   5.625 -1.0500  1.0336  0.6593
 9504SOL    HW229954   0.974   3.439   5.695  0.3013  0.4878 -0.2072
 9505SOL     OW29955   4.690   4.923   4.427 -0.5199 -0.6758 -0.1140
 9505SOL    HW129956   4.691   4.951   4.335 -2.0805 -0.4661 -0.1084
 9505SOL    HW229957   4.623   4.855   4.430 -0.6578 -0.5056  0.9051
 9506SOL     OW29958   3.877   4.878   6.511  0.2024 -0.1026 -0.4610
 9506SOL    HW129959   3.803   4.886   6.451  0.0791 -0.9694 -0.4368
 9506SOL    HW229960   3.838   4.849   6.594  0.5877 -0.8673 -0.5351
 9507SOL     OW29961   1.867   4.535   7.473 -0.1152  0.4677 -0.0823
 9507SOL    HW129962   1.832   4.606   7.419  0.3457  0.4847 -0.3625
 9507SOL    HW229963   1.825   4.547   7.558  1.3375  2.2015  0.4519
 9508SOL     OW29964   2.006   4.284   6.231  0.2591 -0.0681 -0.1790
 9508SOL    HW129965   2.072   4.339   6.188  1.2965 -1.5277 -0.5414
 9508SOL    HW229966   1.925   4.305   6.186  0.7189  0.8242 -0.6211
 9509SOL     OW29967   0.734   3.642   6.835  0.0030 -0.0327  0.3664
 9509SOL    HW129968   0.708   3.720   6.785  0.4131 -0.9826 -1.4159
 9509SOL    HW229969   0.829   3.641   6.830  0.0694  0.0152  1.4658
 9510SOL     OW29970   0.927   2.853   7.354 -0.6887 -0.1437 -0.1921
 9510SOL    HW129971   1.009   2.873   7.309  0.1152 -1.3244  0.6560
 9510SOL    HW229972   0.858   2.871   7.289  0.4431 -2.6594 -2.2910
 9511SOL     OW29973   0.837   5.878   6.207 -0.4799  0.2436  0.4169
 9511SOL    HW129974   0.772   5.853   6.272 -1.5509  0.4192 -0.5479
 9511SOL    HW229975   0.851   5.972   6.220  0.1657  0.0596  1.1139
 9512SOL     OW29976   3.807   4.241   6.045 -0.2903 -0.1874  0.2334
 9512SOL    HW129977   3.862   4.252   5.967  1.2739  0.5718  1.3785
 9512SOL    HW229978   3.720   4.269   6.017  0.3546  0.5907 -1.1136
 9513SOL     OW29979   1.086   4.189   6.766 -0.6645 -0.4877  0.0494
 9513SOL    HW129980   1.046   4.264   6.810  1.6692  0.4362  0.7241
 9513SOL    HW229981   1.142   4.228   6.699 -1.5204 -1.7730 -1.4980
 9514SOL     OW29982   2.842   5.263   6.460  0.3705  0.8850 -0.4410
 9514SOL    HW129983   2.760   5.277   6.413  0.6876  0.8490 -1.0165
 9514SOL    HW229984   2.846   5.168   6.474 -0.9872  1.1194  2.0080
 9515SOL     OW29985   1.129   5.926   6.254 -0.0810  0.3314  0.0875
 9515SOL    HW129986   1.035   5.940   6.244 -0.3798 -0.2664  1.7184
 9515SOL    HW229987   1.166   6.014   6.263 -0.6785  0.5226  0.7523
 9516SOL     OW29988   2.742   4.720   6.528 -0.5886 -0.4726 -0.3951
 9516SOL    HW129989   2.798   4.643   6.540  0.1827  0.0838 -0.3910
 9516SOL    HW229990   2.729   4.725   6.433  1.8453  1.0990 -0.7225
 9517SOL     OW29991   2.965   4.008   7.077 -0.6161 -0.5204  0.3348
 9517SOL    HW129992   3.009   3.923   7.079 -0.5858 -0.5095  0.1711
 9517SOL    HW229993   2.974   4.042   7.166  1.6906  0.4855 -0.2052
 9518SOL     OW29994   3.412   3.904   6.657 -0.9877  0.3998 -0.2224
 9518SOL    HW129995   3.440   3.994   6.638 -2.5256  1.2649  1.3326
 9518SOL    HW229996   3.319   3.903   6.635 -1.5029 -0.1496  1.8136
 9519SOL     OW29997   3.815   5.953   7.518  0.2070 -0.3716 -0.0898
 9519SOL    HW129998   3.814   5.883   7.585  0.2187 -0.5817 -0.3071
 9519SOL    HW229999   3.837   5.907   7.437  1.0495  0.0152 -0.0893
 9520SOL     OW30000   1.350   5.922   5.872 -0.1357  0.3985 -0.5399
 9520SOL    HW130001   1.419   5.905   5.807 -1.5954  0.3485 -2.1377
 9520SOL    HW230002   1.273   5.944   5.820 -1.6108 -0.4923  1.1779
 9521SOL     OW30003   2.991   4.442   5.493  0.1146 -0.4806  0.4697
 9521SOL    HW130004   3.050   4.514   5.471 -0.8484  0.0638 -0.4745
 9521SOL    HW230005   2.989   4.440   5.588  1.6811 -0.5575  0.5239
 9522SOL     OW30006   2.194   4.180   4.705  0.0591 -0.4883 -0.2256
 9522SOL    HW130007   2.276   4.161   4.751 -0.4483  1.4830  1.6612
 9522SOL    HW230008   2.214   4.257   4.652 -0.3194 -0.5883 -0.5138
 9523SOL     OW30009   0.225   4.014   5.647  0.6814 -0.1529  0.0112
 9523SOL    HW130010   0.135   3.981   5.654  1.2945 -1.6825  1.8830
 9523SOL    HW230011   0.217   4.109   5.659 -0.6384 -0.3533  1.0534
 9524SOL     OW30012   0.757   3.840   5.301  0.1973  0.4217  0.1793
 9524SOL    HW130013   0.755   3.935   5.294 -0.1374  0.3157 -1.5934
 9524SOL    HW230014   0.769   3.809   5.211 -1.4001 -1.2600  0.4839
 9525SOL     OW30015   3.325   3.960   7.566  0.4509 -0.5161 -0.3326
 9525SOL    HW130016   3.251   4.019   7.553  0.0993 -0.8741  0.0084
 9525SOL    HW230017   3.344   3.926   7.479  0.0564 -0.6059 -0.3843
 9526SOL     OW30018   3.134   6.476   7.233  0.0824 -0.5601 -0.0238
 9526SOL    HW130019   3.155   6.560   7.191 -0.0218 -0.2628  0.5115
 9526SOL    HW230020   3.079   6.431   7.170 -2.7830  1.2085  1.0277
 9527SOL     OW30021   0.479   6.735   4.421 -0.1487 -0.0215 -0.6074
 9527SOL    HW130022   0.416   6.724   4.492  0.6062 -1.5679 -0.1187
 9527SOL    HW230023   0.475   6.653   4.372 -1.0052  1.2059 -2.6956
 9528SOL     OW30024   3.156   5.702   4.900 -0.4344  0.1625 -0.1784
 9528SOL    HW130025   3.185   5.780   4.853  1.6857 -0.6773 -0.3736
 9528SOL    HW230026   3.073   5.727   4.939 -1.2814  1.5477 -2.6627
 9529SOL     OW30027   3.896   5.753   7.325  0.5191 -0.1297 -0.7241
 9529SOL    HW130028   3.826   5.789   7.271 -0.3881 -0.7370  0.0141
 9529SOL    HW230029   3.913   5.667   7.288 -0.7225 -0.9167  0.4470
 9530SOL     OW30030   1.547   5.119   7.299 -0.8533 -0.0039  0.0714
 9530SOL    HW130031   1.504   5.203   7.313  0.5489  0.7206  0.2377
 9530SOL    HW230032   1.539   5.103   7.205 -2.0973 -0.2505  0.2048
 9531SOL     OW30033   0.473   5.732   7.907  0.2572 -0.3024 -0.4828
 9531SOL    HW130034   0.527   5.774   7.974 -0.7081  0.8696 -0.4177
 9531SOL    HW230035   0.512   5.645   7.897  3.0285  0.9203 -1.4132
 9532SOL     OW30036   2.999   4.995   5.223 -0.2579 -0.1626  0.2520
 9532SOL    HW130037   2.922   4.949   5.188  0.6805 -0.7781 -1.1087
 9532SOL    HW230038   3.055   5.010   5.146  1.7307 -1.2331  1.4058
 9533SOL     OW30039   3.686   3.898   7.468  0.2851 -0.4269  0.1687
 9533SOL    HW130040   3.701   3.899   7.373  0.7777  2.1620  0.2116
 9533SOL    HW230041   3.591   3.906   7.477  0.2231 -0.8175 -0.0753
 9534SOL     OW30042   2.945   3.231   6.898  0.0370  0.4620 -0.5354
 9534SOL    HW130043   2.919   3.209   6.988  0.7494 -0.5522 -0.5670
 9534SOL    HW230044   3.040   3.239   6.902 -0.0505  1.9840 -0.8838
 9535SOL     OW30045   2.718   3.771   7.409 -0.5547 -0.2549  0.0143
 9535SOL    HW130046   2.765   3.827   7.346  0.3294  0.0310  0.9123
 9535SOL    HW230047   2.776   3.765   7.484 -1.9514  0.0886  1.1619
 9536SOL     OW30048   2.984   5.241   5.616 -0.1499  0.3538 -0.1857
 9536SOL    HW130049   2.993   5.265   5.709 -0.1069  0.4375 -0.2113
 9536SOL    HW230050   3.014   5.151   5.612  0.9063  0.6983 -0.3052
 9537SOL     OW30051   0.915   3.530   6.589  0.4538  0.0401  0.5345
 9537SOL    HW130052   0.821   3.549   6.587  0.3235 -0.6259 -0.2713
 9537SOL    HW230053   0.955   3.612   6.620 -0.3565  0.4568  0.5170
 9538SOL     OW30054   1.660   6.655   5.661 -0.4180 -0.1835  0.2035
 9538SOL    HW130055   1.690   6.599   5.733 -0.4854 -0.9092 -0.3208
 9538SOL    HW230056   1.567   6.670   5.680  0.0450  1.4462  1.4240
 9539SOL     OW30057   3.946   4.479   6.456  0.3204 -0.1266  0.5168
 9539SOL    HW130058   3.859   4.442   6.473  0.2295 -0.4005 -0.4725
 9539SOL    HW230059   3.947   4.496   6.362  1.4326 -0.3834  0.4635
 9540SOL     OW30060   3.394   3.587   7.480 -0.5259  0.5088  0.4962
 9540SOL    HW130061   3.486   3.613   7.489  0.9978 -4.0129  0.5970
 9540SOL    HW230062   3.369   3.556   7.567 -0.7180 -1.9276 -0.3466
 9541SOL     OW30063   3.996   4.347   6.949  0.3315  0.4349 -0.6495
 9541SOL    HW130064   4.047   4.385   7.020  0.3735  0.0100 -0.4453
 9541SOL    HW230065   3.923   4.303   6.993  1.9141 -2.3396 -0.5807
 9542SOL     OW30066   1.596   6.356   5.482  0.2216 -0.2725  0.2492
 9542SOL    HW130067   1.520   6.300   5.492  0.5613 -0.4540  2.1528
 9542SOL    HW230068   1.634   6.362   5.570  3.0441 -1.0975 -0.7684
 9543SOL     OW30069   2.485   4.783   6.653  0.3316 -0.3775 -0.3254
 9543SOL    HW130070   2.573   4.768   6.619  0.0235 -0.6490 -1.0094
 9543SOL    HW230071   2.450   4.855   6.600 -0.3379 -1.1418 -0.9610
 9544SOL     OW30072   4.059   5.365   5.559  0.3022 -0.4127 -0.2818
 9544SOL    HW130073   4.008   5.362   5.478 -0.3493  0.0014  0.1064
 9544SOL    HW230074   4.054   5.277   5.594  0.6702 -0.6202 -0.7430
 9545SOL     OW30075   2.971   4.361   7.051  0.7386  0.2395  0.2489
 9545SOL    HW130076   2.994   4.393   6.963 -0.0537 -1.5432 -0.6560
 9545SOL    HW230077   3.052   4.320   7.083  1.2074  1.4188  0.6398
 9546SOL     OW30078   2.208   3.437   8.289 -0.0337 -0.1179 -0.4684
 9546SOL    HW130079   2.182   3.347   8.272 -1.0863  0.3361 -1.4511
 9546SOL    HW230080   2.130   3.477   8.329  0.8283  0.0603  1.1106
 9547SOL     OW30081   2.430   5.564   5.420  0.0298  0.5155 -0.0932
 9547SOL    HW130082   2.434   5.584   5.327  0.1931 -0.5090 -0.3198
 9547SOL    HW230083   2.416   5.648   5.462 -0.2410  0.9673 -1.0561
 9548SOL     OW30084   3.414   3.878   7.314  0.0476 -0.1461  0.0851
 9548SOL    HW130085   3.392   3.786   7.295  1.1281 -0.3812 -0.0895
 9548SOL    HW230086   3.446   3.913   7.230  0.1230  0.2423  0.2740
 9549SOL     OW30087   3.565   4.082   6.419  0.1472 -0.4028  0.2349
 9549SOL    HW130088   3.558   4.095   6.324  0.3342 -0.0176  0.2715
 9549SOL    HW230089   3.570   3.987   6.429 -2.6413 -0.6465  0.0610
 9550SOL     OW30090   1.711   2.763   7.296 -0.0260  0.2378  0.4620
 9550SOL    HW130091   1.785   2.703   7.292 -0.2081  0.0269  0.2609
 9550SOL    HW230092   1.663   2.737   7.374 -1.4335 -1.4451 -0.8812
 9551SOL     OW30093   3.794   6.246   5.763  0.1076 -0.2791  0.1045
 9551SOL    HW130094   3.887   6.226   5.764 -0.3362 -2.6130  0.6966
 9551SOL    HW230095   3.757   6.184   5.699 -1.2547 -0.6787  1.2283
 9552SOL     OW30096   3.111   4.487   7.296 -0.2567 -0.6743 -0.1946
 9552SOL    HW130097   3.198   4.526   7.295 -0.7950  0.5655 -0.4231
 9552SOL    HW230098   3.107   4.435   7.216 -0.5752  1.3054 -1.5601
 9553SOL     OW30099   2.838   5.696   7.011  0.8446 -0.0083 -0.3268
 9553SOL    HW130100   2.875   5.776   7.049  0.8192 -0.6297  1.0880
 9553SOL    HW230101   2.795   5.725   6.931  1.1835  1.3260 -0.0555
 9554SOL     OW30102   2.370   4.212   5.390 -0.0859  0.1745  0.1928
 9554SOL    HW130103   2.446   4.183   5.440  0.1827  0.7870  0.1511
 9554SOL    HW230104   2.379   4.308   5.385 -0.4224  0.1804 -0.5111
 9555SOL     OW30105   1.170   6.600   5.916 -0.3256  0.3302  0.3817
 9555SOL    HW130106   1.177   6.644   5.831  0.5019  1.2025  0.8914
 9555SOL    HW230107   1.166   6.507   5.894  1.0990  0.4700 -0.5551
 9556SOL     OW30108   3.523   4.937   6.902  0.2959  0.4688  0.4898
 9556SOL    HW130109   3.505   4.849   6.868  1.4491  0.7081 -0.8544
 9556SOL    HW230110   3.618   4.938   6.915  0.5746  2.0532 -1.2648
 9557SOL     OW30111   2.905   4.508   6.645  0.3552  0.0491  0.3876
 9557SOL    HW130112   2.960   4.476   6.717  2.1712  0.8454 -0.5719
 9557SOL    HW230113   2.944   4.471   6.567 -0.7609  0.3052 -0.3124
 9558SOL     OW30114   1.714   4.096   6.458  0.6527 -0.4524 -0.0328
 9558SOL    HW130115   1.779   4.050   6.511  0.4749 -0.5336  0.1163
 9558SOL    HW230116   1.642   4.112   6.519  0.2331 -0.9989 -0.3837
 9559SOL     OW30117   3.802   3.492   6.987 -0.3915 -0.1971  0.4205
 9559SOL    HW130118   3.708   3.502   6.972 -0.4716 -0.7757  0.5308
 9559SOL    HW230119   3.843   3.539   6.914 -0.7533  0.8286  0.8573
 9560SOL     OW30120   1.742   5.705   5.754 -0.2049 -0.2639 -0.5983
 9560SOL    HW130121   1.770   5.650   5.680  0.8126 -0.4749 -0.0726
 9560SOL    HW230122   1.703   5.782   5.713 -0.4800 -0.7952 -1.3536
 9561SOL     OW30123   0.060   2.451   6.195 -0.5283 -0.0811  0.6059
 9561SOL    HW130124   0.118   2.380   6.168  0.1697  1.2026 -1.4825
 9561SOL    HW230125   0.119   2.519   6.228 -0.9878  0.5163  0.2120
 9562SOL     OW30126   3.406   2.053   6.636  0.3259  0.2452  0.0560
 9562SOL    HW130127   3.348   2.129   6.637 -0.1712 -0.1105 -1.0003
 9562SOL    HW230128   3.474   2.074   6.701  1.3103  2.4357 -1.5770
 9563SOL     OW30129   2.334   4.817   5.218  0.3857 -0.3658 -0.3791
 9563SOL    HW130130   2.352   4.870   5.141 -1.6609  2.2802  0.7746
 9563SOL    HW230131   2.253   4.771   5.198  0.9357 -1.3027 -0.5183
 9564SOL     OW30132   1.573   6.136   7.540 -0.1723  0.3855 -0.4652
 9564SOL    HW130133   1.652   6.191   7.543 -1.9255  3.1585 -1.1811
 9564SOL    HW230134   1.568   6.097   7.627  2.4085 -0.5918 -0.6768
 9565SOL     OW30135   2.597   4.245   4.698  0.0083  0.5965  0.8744
 9565SOL    HW130136   2.589   4.149   4.700  0.2574  0.5649  3.2666
 9565SOL    HW230137   2.682   4.261   4.657 -0.4179 -0.1451 -0.3473
 9566SOL     OW30138   2.754   5.522   4.709  0.1708 -0.3433 -0.1427
 9566SOL    HW130139   2.711   5.471   4.640 -0.5647  0.3171 -0.1823
 9566SOL    HW230140   2.844   5.532   4.678  0.2350 -1.2833 -0.3092
 9567SOL     OW30141   1.369   4.686   6.874  0.0480 -0.0564 -0.6194
 9567SOL    HW130142   1.458   4.677   6.840 -0.0854  0.6475 -1.2025
 9567SOL    HW230143   1.345   4.598   6.902  1.4715  0.0125  0.9776
 9568SOL     OW30144   3.146   5.084   6.045 -0.3856 -0.0702 -0.5890
 9568SOL    HW130145   3.100   5.122   6.119 -1.0983  0.1428 -1.1368
 9568SOL    HW230146   3.218   5.034   6.085 -0.5018  0.3939  0.2159
 9569SOL     OW30147   2.571   3.989   6.686 -0.7726  0.3427 -0.6262
 9569SOL    HW130148   2.581   3.916   6.747 -1.6760 -0.2163 -1.1263
 9569SOL    HW230149   2.568   4.067   6.741 -0.6081 -0.0705 -0.0319
 9570SOL     OW30150   0.641   3.850   6.689 -0.0708  0.2340 -0.0903
 9570SOL    HW130151   0.553   3.880   6.714  0.2759  1.5560 -0.3802
 9570SOL    HW230152   0.698   3.924   6.710  0.7528 -0.0242 -1.3236
 9571SOL     OW30153   2.230   4.086   6.731 -0.3069  0.1883  0.5589
 9571SOL    HW130154   2.321   4.112   6.719  0.1561 -1.5208  0.1703
 9571SOL    HW230155   2.231   3.990   6.726 -2.3093  0.1792 -0.8992
 9572SOL     OW30156   3.134   6.114   6.936  0.3263  0.1945 -0.1255
 9572SOL    HW130157   3.166   6.066   6.860 -0.6817 -0.0105 -0.4311
 9572SOL    HW230158   3.213   6.146   6.979  1.0788 -2.2387  0.4407
 9573SOL     OW30159   3.597   3.560   7.244 -0.3437 -0.0286  0.1523
 9573SOL    HW130160   3.575   3.530   7.156 -0.3723 -1.6058  0.6676
 9573SOL    HW230161   3.645   3.642   7.230 -1.1905  0.2497 -1.2669
 9574SOL     OW30162   2.748   4.751   7.250 -0.0657  0.5588  0.2724
 9574SOL    HW130163   2.782   4.684   7.308  1.6666 -0.2813 -1.5939
 9574SOL    HW230164   2.819   4.814   7.240 -0.1402  0.4541 -1.2240
 9575SOL     OW30165   4.258   5.281   5.809 -0.1102  0.7779  0.4052
 9575SOL    HW130166   4.335   5.232   5.780  0.2622  1.0398  0.9262
 9575SOL    HW230167   4.193   5.214   5.830 -0.0536  0.5576 -0.1064
 9576SOL     OW30168   1.626   5.286   6.990  0.2513  0.0784  0.1277
 9576SOL    HW130169   1.554   5.224   6.998 -0.1622  0.5004 -0.2642
 9576SOL    HW230170   1.603   5.341   6.915  1.6575 -0.6606 -0.8898
 9577SOL     OW30171   1.115   3.167   6.862  0.2011 -0.2411 -0.1113
 9577SOL    HW130172   1.197   3.170   6.911 -0.6792  0.5738  1.3987
 9577SOL    HW230173   1.106   3.254   6.824 -0.5907  0.1181  0.8563
 9578SOL     OW30174   3.377   5.117   5.399 -0.0361  0.0599 -0.4892
 9578SOL    HW130175   3.434   5.045   5.372 -0.1152 -0.1707 -0.0487
 9578SOL    HW230176   3.408   5.193   5.349  0.5708 -0.0944 -0.3486
 9579SOL     OW30177   4.263   4.303   6.424 -0.0395  0.3705 -0.3824
 9579SOL    HW130178   4.339   4.348   6.388  1.2504 -0.8515  0.6654
 9579SOL    HW230179   4.224   4.257   6.349  0.6812  0.4335 -0.8013
 9580SOL     OW30180   1.119   2.901   7.176 -0.2619  0.2252  0.1188
 9580SOL    HW130181   1.080   2.856   7.101  0.4564  0.7598 -0.5905
 9580SOL    HW230182   1.211   2.878   7.173 -0.4622 -0.9241  1.7125
 9581SOL     OW30183   1.825   5.177   5.463  0.0115  0.5443  0.4624
 9581SOL    HW130184   1.919   5.190   5.480  0.1617 -0.3652  0.3578
 9581SOL    HW230185   1.805   5.240   5.394  0.7145  0.2703 -0.0058
 9582SOL     OW30186   1.719   4.895   6.687 -0.1350  0.0256 -0.2440
 9582SOL    HW130187   1.776   4.940   6.624  0.0851  0.0320 -0.0434
 9582SOL    HW230188   1.770   4.818   6.713  0.5650  0.9562  1.2832
 9583SOL     OW30189   3.102   4.255   6.579 -0.0826 -0.3567 -0.2612
 9583SOL    HW130190   3.127   4.166   6.605  0.7709 -0.2025 -0.5454
 9583SOL    HW230191   3.150   4.271   6.498  1.0394  0.9555  0.6230
 9584SOL     OW30192   1.697   4.476   6.487  0.0148 -0.5700 -0.3431
 9584SOL    HW130193   1.741   4.411   6.541 -0.2113 -0.4012  0.0439
 9584SOL    HW230194   1.763   4.543   6.472 -0.4118  0.2279  1.1521
 9585SOL     OW30195   3.543   5.228   6.906  0.1337 -0.1459  0.0150
 9585SOL    HW130196   3.593   5.147   6.917 -1.0140 -0.7022  1.5095
 9585SOL    HW230197   3.502   5.219   6.821  0.7362 -0.7222 -0.2270
 9586SOL     OW30198   2.032   4.076   7.159  0.4199 -0.0822  0.6370
 9586SOL    HW130199   2.020   4.170   7.167 -2.4536 -0.0993 -1.5874
 9586SOL    HW230200   2.057   4.047   7.247 -0.8945  2.4728  1.9676
 9587SOL     OW30201   1.892   5.903   5.911  0.1872 -0.2481 -0.1620
 9587SOL    HW130202   1.901   5.871   6.001 -0.4280 -0.5654 -0.2062
 9587SOL    HW230203   1.821   5.850   5.874 -0.6319  0.9348 -0.3331
 9588SOL     OW30204   1.829   3.327   7.795 -0.2259 -0.2260  0.6067
 9588SOL    HW130205   1.840   3.272   7.872 -0.4975 -0.8188  0.2325
 9588SOL    HW230206   1.748   3.295   7.755 -0.2295  0.2547  0.2220
 9589SOL     OW30207   3.146   6.376   4.310 -0.0136  0.1490 -0.2276
 9589SOL    HW130208   3.188   6.297   4.277 -0.0680 -0.5797  1.3803
 9589SOL    HW230209   3.218   6.439   4.319  0.3893 -0.4042  0.4851
 9590SOL     OW30210   2.595   5.913   5.866 -0.2155  0.1503 -0.2354
 9590SOL    HW130211   2.668   5.851   5.867  0.0260  0.4427  0.1141
 9590SOL    HW230212   2.520   5.861   5.897  0.2363  0.3390  1.2270
 9591SOL     OW30213   3.310   3.217   7.834 -0.1606 -0.0631  0.2661
 9591SOL    HW130214   3.375   3.194   7.768  0.4057 -0.4346  0.9405
 9591SOL    HW230215   3.356   3.208   7.918 -0.7554  0.7649  0.6935
 9592SOL     OW30216   1.160   4.730   6.608 -1.0252  0.1207 -0.0711
 9592SOL    HW130217   1.129   4.820   6.616 -0.2268  0.4687 -0.7213
 9592SOL    HW230218   1.254   4.739   6.593 -0.4551 -0.9114  2.4916
 9593SOL     OW30219   1.045   5.130   4.199  0.2490 -0.3530 -0.1250
 9593SOL    HW130220   0.969   5.188   4.202  0.2551 -0.3626  0.3815
 9593SOL    HW230221   1.037   5.076   4.278  0.4321 -0.7980 -0.4126
 9594SOL     OW30222   2.719   5.923   6.869  0.1519 -0.4002  0.2362
 9594SOL    HW130223   2.719   6.016   6.846  3.0986 -0.2389  0.5145
 9594SOL    HW230224   2.642   5.887   6.826 -1.1819  2.1888  0.2873
 9595SOL     OW30225   1.865   3.967   8.073 -0.1676 -0.2677 -0.0119
 9595SOL    HW130226   1.857   4.025   7.998 -1.4137  0.3362  0.5647
 9595SOL    HW230227   1.885   3.882   8.035  1.9612  0.5351 -0.8656
 9596SOL     OW30228   0.772   6.037   8.416 -0.0037 -0.2662 -0.1541
 9596SOL    HW130229   0.710   6.081   8.474 -0.2766 -2.0174  0.9504
 9596SOL    HW230230   0.719   5.974   8.367  0.3689  0.6048 -1.7523
 9597SOL     OW30231   0.853   4.372   7.891  0.4131 -0.2021 -0.2272
 9597SOL    HW130232   0.759   4.358   7.878  0.0587  2.5271 -1.2661
 9597SOL    HW230233   0.870   4.337   7.979 -0.7338 -3.9881 -1.3289
 9598SOL     OW30234   0.780   6.457   7.512  0.0056  0.2150 -0.3131
 9598SOL    HW130235   0.792   6.426   7.422  1.9074  0.1608 -0.0772
 9598SOL    HW230236   0.755   6.549   7.503 -2.6972 -0.4705 -0.9240
 9599SOL     OW30237   3.015   2.482   8.087  0.0041  0.3582  0.2419
 9599SOL    HW130238   3.017   2.480   7.991 -1.8178 -0.4987  0.1765
 9599SOL    HW230239   2.963   2.558   8.109  0.5413  0.6384  0.5771
 9600SOL     OW30240   1.479   4.941   7.737  0.6983 -0.2981  0.2499
 9600SOL    HW130241   1.426   5.005   7.784  0.6177 -0.8356  0.9204
 9600SOL    HW230242   1.517   4.887   7.806  1.4327 -0.4500 -0.2674
 9601SOL     OW30243   1.143   4.001   7.906 -0.1263 -0.0257 -0.7932
 9601SOL    HW130244   1.178   4.056   7.976 -0.6038 -0.3078 -0.3309
 9601SOL    HW230245   1.049   4.014   7.909 -0.2856 -1.1185 -0.4581
 9602SOL     OW30246   3.052   5.009   7.559 -0.2006 -0.4496  0.0813
 9602SOL    HW130247   3.102   5.054   7.492  0.0646 -1.1146 -0.1678
 9602SOL    HW230248   2.960   5.029   7.538 -0.1519 -1.1498 -0.8348
 9603SOL     OW30249   1.510   5.613   8.036 -0.4516 -0.0229 -0.1991
 9603SOL    HW130250   1.462   5.684   8.079 -1.5493  0.0858 -1.5431
 9603SOL    HW230251   1.485   5.535   8.086 -0.6332  0.2891  0.2071
 9604SOL     OW30252   2.144   4.484   6.137  0.0844  0.0118 -0.0904
 9604SOL    HW130253   2.192   4.515   6.060  1.1671  1.1944  1.0186
 9604SOL    HW230254   2.122   4.564   6.185  0.3367 -0.7581  1.3462
 9605SOL     OW30255   2.186   5.295   7.921 -0.0831 -0.2954  0.0342
 9605SOL    HW130256   2.192   5.340   8.006 -1.6646 -0.3847  0.2194
 9605SOL    HW230257   2.153   5.362   7.861  2.1046  0.0997 -0.8312
 9606SOL     OW30258   2.805   4.161   9.625 -0.7935 -0.4983 -0.6119
 9606SOL    HW130259   2.893   4.138   9.655 -1.7933 -2.3164  1.2401
 9606SOL    HW230260   2.810   4.253   9.601  1.1472 -0.0074  1.4018
 9607SOL     OW30261   3.180   5.243   6.838 -0.2134  0.3569  0.2264
 9607SOL    HW130262   3.179   5.231   6.933  0.7038  0.1209  0.2157
 9607SOL    HW230263   3.187   5.154   6.803 -3.1274  0.1896 -0.1675
 9608SOL     OW30264   2.709   4.885   9.173  0.6115 -0.0485  0.0507
 9608SOL    HW130265   2.700   4.975   9.205 -0.4711  0.0561 -0.5165
 9608SOL    HW230266   2.623   4.845   9.187  1.5462 -1.5686  1.9311
 9609SOL     OW30267   1.537   4.154   6.672  0.1391  0.3222  0.0157
 9609SOL    HW130268   1.570   4.115   6.753 -1.9304 -1.7892 -0.0516
 9609SOL    HW230269   1.454   4.195   6.698  0.3899  1.3048 -0.6875
 9610SOL     OW30270   1.268   4.610   9.900 -0.7305 -0.0817 -0.2714
 9610SOL    HW130271   1.341   4.604   9.962 -0.5784  0.3444 -0.4037
 9610SOL    HW230272   1.233   4.521   9.896 -0.0220 -0.3681 -0.4367
 9611SOL     OW30273   3.279   7.519   9.253 -0.4274 -0.0295  0.4002
 9611SOL    HW130274   3.351   7.543   9.310 -0.4599  0.7371  0.1284
 9611SOL    HW230275   3.234   7.449   9.299 -1.5740  1.8056  2.2256
 9612SOL     OW30276   1.558   5.143   8.434 -0.3256  0.3626 -0.0539
 9612SOL    HW130277   1.647   5.121   8.405 -0.7873  0.2189 -1.4422
 9612SOL    HW230278   1.540   5.081   8.504 -0.3744 -1.5709 -1.6873
 9613SOL     OW30279   7.658   4.082   8.254  0.1596 -0.3709 -0.6556
 9613SOL    HW130280   7.720   4.091   8.326  2.0101  1.1655 -2.3364
 9613SOL    HW230281   7.580   4.042   8.295  1.2179  0.1267  2.0833
 9614SOL     OW30282   3.269   5.443   8.232 -0.1068 -0.1611  0.1352
 9614SOL    HW130283   3.279   5.348   8.240 -2.2393 -0.4933 -0.4628
 9614SOL    HW230284   3.234   5.471   8.316 -2.9993 -0.5430 -0.8224
 9615SOL     OW30285   2.342   5.647   7.228 -0.3441 -0.1724 -0.2953
 9615SOL    HW130286   2.379   5.605   7.306  2.3242  0.6814 -0.9991
 9615SOL    HW230287   2.405   5.628   7.158 -0.1946  3.0252 -1.1641
 9616SOL     OW30288   2.020   2.819  10.587  0.2364  0.0721 -0.4486
 9616SOL    HW130289   2.056   2.903  10.557 -1.0624  0.4350 -1.0542
 9616SOL    HW230290   1.990   2.836  10.676  0.5307  0.0760 -0.3491
 9617SOL     OW30291   0.983   5.615   8.065  0.1657  0.1197  0.3191
 9617SOL    HW130292   0.939   5.699   8.076  0.9429  0.6006 -0.1858
 9617SOL    HW230293   0.940   5.576   7.989  0.6032  0.5970 -0.1845
 9618SOL     OW30294   2.164   4.883   8.436 -0.6481 -0.3238 -0.0505
 9618SOL    HW130295   2.073   4.880   8.466 -0.5940 -0.6859  0.0900
 9618SOL    HW230296   2.193   4.791   8.438 -0.2000 -0.1850  0.1639
 9619SOL     OW30297   2.992   4.047   7.373  0.4312  0.3145 -0.0561
 9619SOL    HW130298   3.031   3.960   7.380  1.9858  0.9972  0.1274
 9619SOL    HW230299   3.045   4.102   7.429 -0.3985  1.4375 -0.3379
 9620SOL     OW30300   1.294   5.094   7.893  0.0632 -0.1649  0.0217
 9620SOL    HW130301   1.208   5.123   7.923  0.7086 -0.1304  1.9589
 9620SOL    HW230302   1.355   5.158   7.930  1.2207 -2.1567  1.7233
 9621SOL     OW30303   4.305   5.674   7.909  0.2957  0.2610  0.1656
 9621SOL    HW130304   4.278   5.744   7.850  0.4042 -0.3063 -0.5711
 9621SOL    HW230305   4.225   5.623   7.924  0.5020 -0.2336 -0.3815
 9622SOL     OW30306   3.010   3.140   9.678  0.4523 -0.7412 -0.4699
 9622SOL    HW130307   3.046   3.061   9.719 -0.1309  0.3883  2.4573
 9622SOL    HW230308   3.058   3.212   9.719 -1.6105  0.5629 -0.2413
 9623SOL     OW30309   0.590   5.170   8.793 -0.0184 -0.3400 -0.6529
 9623SOL    HW130310   0.573   5.125   8.876  0.6750  0.1308 -0.2422
 9623SOL    HW230311   0.683   5.194   8.797 -0.2687  0.7647 -1.0292
 9624SOL     OW30312   4.378   5.489   9.406  0.1836 -0.6971 -0.2233
 9624SOL    HW130313   4.469   5.520   9.412  0.5884 -1.6805 -1.0925
 9624SOL    HW230314   4.325   5.569   9.410  1.0392 -0.1712  1.1098
 9625SOL     OW30315   3.254   4.994   6.731  0.2189 -0.6272  0.3130
 9625SOL    HW130316   3.309   4.927   6.769  1.0547  0.3562  0.8714
 9625SOL    HW230317   3.276   4.993   6.637  1.2920 -0.1729  0.5434
 9626SOL     OW30318   2.669   3.915   8.131  0.2025  0.2186 -0.7545
 9626SOL    HW130319   2.743   3.855   8.123 -0.1452 -0.1865 -1.0270
 9626SOL    HW230320   2.662   3.955   8.044  1.6479  2.1441 -0.0555
 9627SOL     OW30321   2.146   5.482   6.317 -0.0328 -0.3143 -0.3067
 9627SOL    HW130322   2.220   5.542   6.324 -0.6953  0.6605 -1.2588
 9627SOL    HW230323   2.146   5.434   6.400  0.9339  0.5196  0.2008
 9628SOL     OW30324   1.784   3.765   9.077 -0.2342 -0.2852 -0.5040
 9628SOL    HW130325   1.704   3.749   9.027 -0.1890 -1.0603 -0.3487
 9628SOL    HW230326   1.779   3.702   9.149 -0.1143  0.5546  0.2528
 9629SOL     OW30327   2.571   4.294   8.365 -0.3227 -0.5567 -0.6718
 9629SOL    HW130328   2.507   4.347   8.317 -1.5271  0.8482  2.2466
 9629SOL    HW230329   2.526   4.210   8.379 -0.4496 -0.5426 -0.9973
 9630SOL     OW30330   3.309   4.449   8.416 -0.0959 -0.8301  0.0535
 9630SOL    HW130331   3.394   4.467   8.456 -0.8468  1.4952  0.7610
 9630SOL    HW230332   3.323   4.459   8.322  0.3958 -0.3019  0.1794
 9631SOL     OW30333   2.759   4.833   9.472  0.0117 -0.1441  0.1347
 9631SOL    HW130334   2.833   4.776   9.452 -1.0712 -1.4671 -0.3510
 9631SOL    HW230335   2.682   4.780   9.449 -1.0901  1.0646  0.8949
 9632SOL     OW30336   0.027   3.702   7.214 -0.0667  0.0791  0.2946
 9632SOL    HW130337   0.087   3.745   7.153 -0.0728 -2.0677 -1.3493
 9632SOL    HW230338   0.067   3.714   7.300  0.0244  3.0605 -0.0552
 9633SOL     OW30339   1.912   6.062   9.021 -0.1473  0.0736 -0.0819
 9633SOL    HW130340   1.929   6.074   9.114  1.3129  2.0938 -0.5406
 9633SOL    HW230341   1.978   5.998   8.993  0.4645  0.6465  0.0050
 9634SOL     OW30342   3.562   4.442   6.980  0.0654 -0.4143  0.0964
 9634SOL    HW130343   3.559   4.382   7.055 -0.1107 -1.2314 -0.5430
 9634SOL    HW230344   3.595   4.524   7.015 -1.2048 -0.3910  1.3386
 9635SOL     OW30345   3.818   4.346   9.345 -0.3331  0.0444  0.1639
 9635SOL    HW130346   3.820   4.382   9.256  0.3984 -0.5364 -0.0565
 9635SOL    HW230347   3.887   4.393   9.391 -0.2838 -0.1184  0.2533
 9636SOL     OW30348   3.170   5.029   8.881 -0.6769 -0.1051 -0.1993
 9636SOL    HW130349   3.224   5.019   8.960 -0.7839 -0.9849 -0.2290
 9636SOL    HW230350   3.097   4.968   8.894 -0.5445 -0.4729 -1.1012
 9637SOL     OW30351   1.958   4.004   8.471  0.1681  0.5788  0.3611
 9637SOL    HW130352   2.053   4.000   8.484  0.3230  1.5661 -0.2927
 9637SOL    HW230353   1.948   4.046   8.385 -0.8535 -0.0663  0.1526
 9638SOL     OW30354   1.462   5.299   7.990  0.0210 -0.5688  0.1252
 9638SOL    HW130355   1.544   5.291   7.942 -0.2329 -1.1285 -0.2247
 9638SOL    HW230356   1.477   5.252   8.073  0.6102  0.7843  0.8126
 9639SOL     OW30357   2.155   6.943   8.436  0.5539  0.5565 -0.3270
 9639SOL    HW130358   2.250   6.950   8.431  0.7944 -0.9892  1.1461
 9639SOL    HW230359   2.133   6.875   8.371  0.7266 -0.5524  0.7297
 9640SOL     OW30360   1.478   4.999   8.673 -0.1916  0.7153 -0.8777
 9640SOL    HW130361   1.395   4.982   8.629 -0.7736  1.9180 -0.3022
 9640SOL    HW230362   1.475   4.944   8.751  0.0167 -0.0073 -1.3678
 9641SOL     OW30363   1.923   3.651   7.524 -0.2243  0.0634  0.5594
 9641SOL    HW130364   1.936   3.557   7.538 -0.0147 -0.0796 -0.5219
 9641SOL    HW230365   1.834   3.668   7.556  0.3164 -0.1596  2.2920
 9642SOL     OW30366   3.102   5.440   8.455 -0.0442 -0.2408  0.5453
 9642SOL    HW130367   3.024   5.451   8.401 -0.4177  0.5151  1.2150
 9642SOL    HW230368   3.073   5.385   8.528  0.0490  0.0124  0.7765
 9643SOL     OW30369   1.467   7.325   9.437  0.4989  0.0007  0.1793
 9643SOL    HW130370   1.434   7.276   9.362 -2.6752  0.6229  1.0252
 9643SOL    HW230371   1.562   7.320   9.429  0.3170  0.1917 -3.9116
 9644SOL     OW30372   2.019   4.021   6.885 -0.5340  0.3976 -0.1491
 9644SOL    HW130373   2.092   4.069   6.846  0.8202  0.4193  2.2744
 9644SOL    HW230374   2.026   4.038   6.979 -2.2293 -1.5837  0.3972
 9645SOL     OW30375   2.061   3.444   8.848 -0.6798  0.8513 -0.0971
 9645SOL    HW130376   2.097   3.396   8.773 -0.5778 -0.6561  0.8557
 9645SOL    HW230377   2.133   3.446   8.911 -1.8498 -1.2949  1.4283
 9646SOL     OW30378   5.583   6.445   6.429  0.1001 -0.2243  0.4147
 9646SOL    HW130379   5.620   6.487   6.351  1.1847 -1.1521  0.4029
 9646SOL    HW230380   5.610   6.500   6.502  0.0532  0.0288  0.2408
 9647SOL     OW30381   2.813   6.953   6.110  0.3425  0.3498 -0.5676
 9647SOL    HW130382   2.903   6.925   6.124  0.5702  1.4645  0.3802
 9647SOL    HW230383   2.819   7.032   6.057  0.0746  1.4838  1.0287
 9648SOL     OW30384   2.609   5.186   9.293 -0.4842 -0.1527 -0.1433
 9648SOL    HW130385   2.687   5.190   9.238 -0.2126  0.5062  0.2749
 9648SOL    HW230386   2.644   5.176   9.382 -0.8927 -0.3044  0.0002
 9649SOL     OW30387   2.381   4.734   7.441 -0.0383 -0.3483 -0.5508
 9649SOL    HW130388   2.355   4.643   7.424 -0.4855  0.2038 -3.3043
 9649SOL    HW230389   2.446   4.753   7.374  1.1656  0.9496  0.9268
 9650SOL     OW30390   1.662   6.519   7.008  0.0478  0.6981  0.4300
 9650SOL    HW130391   1.625   6.604   7.030 -1.6937  0.6741 -1.9701
 9650SOL    HW230392   1.672   6.521   6.913  1.7515 -1.1167  0.4938
 9651SOL     OW30393   1.804   4.674   7.755 -0.0538 -0.0483 -0.1559
 9651SOL    HW130394   1.839   4.762   7.771  2.0827 -0.8364 -0.2091
 9651SOL    HW230395   1.880   4.622   7.729 -0.9807 -2.2877  1.2958
 9652SOL     OW30396   2.942   5.440   9.079 -0.2293 -0.0393 -0.2248
 9652SOL    HW130397   2.884   5.498   9.030 -0.0934  0.6917  0.4598
 9652SOL    HW230398   2.888   5.409   9.152 -0.0783 -0.1937 -0.1788
 9653SOL     OW30399   1.195   5.521   8.272 -0.5150 -0.8095  0.1455
 9653SOL    HW130400   1.170   5.539   8.181 -1.9804  1.0512  0.8475
 9653SOL    HW230401   1.277   5.473   8.265 -0.1679 -0.0218 -2.1509
 9654SOL     OW30402   1.525   5.062   6.649 -0.0677  0.2843 -0.0405
 9654SOL    HW130403   1.604   5.008   6.645 -0.4719 -0.3049 -0.1318
 9654SOL    HW230404   1.558   5.152   6.650  0.5830  0.0619 -0.7594
 9655SOL     OW30405   3.132   4.787   8.279 -0.4864  0.8078  0.0248
 9655SOL    HW130406   3.092   4.839   8.348  1.2119  1.1190  0.8208
 9655SOL    HW230407   3.104   4.697   8.297 -2.7450  1.2729 -0.8675
 9656SOL     OW30408   3.319   2.939   7.683 -0.3377 -0.0409  0.0630
 9656SOL    HW130409   3.371   3.019   7.678 -0.7425  0.2280  0.1063
 9656SOL    HW230410   3.362   2.887   7.751  0.6927 -0.4316 -0.8554
 9657SOL     OW30411   1.850   3.731   6.327 -0.3060  0.4048 -0.0019
 9657SOL    HW130412   1.842   3.812   6.276 -0.5820 -0.6997 -1.8051
 9657SOL    HW230413   1.760   3.712   6.357 -0.3581  0.4165 -0.1503
 9658SOL     OW30414   2.328   4.263   5.857  0.0322  0.0565 -0.2296
 9658SOL    HW130415   2.233   4.259   5.856  0.0249 -0.8181  1.4424
 9658SOL    HW230416   2.355   4.182   5.901  1.6598 -0.9644 -2.8317
 9659SOL     OW30417   1.255   3.906   8.814  1.1140 -0.3378 -0.6375
 9659SOL    HW130418   1.239   3.997   8.836 -0.3219 -0.7993  0.4279
 9659SOL    HW230419   1.197   3.889   8.739  1.1419 -0.4417 -0.6369
 9660SOL     OW30420   0.275   3.990   7.655  0.1233  0.3491 -0.4426
 9660SOL    HW130421   0.318   3.997   7.740 -0.9579  1.7228  0.0457
 9660SOL    HW230422   0.182   4.004   7.675 -0.0040  2.0835 -1.9928
 9661SOL     OW30423   2.583   4.543   6.979 -0.8250  0.1990 -0.3855
 9661SOL    HW130424   2.636   4.612   6.940 -0.0586 -0.1856 -0.0396
 9661SOL    HW230425   2.646   4.477   7.009 -1.4986 -0.3222 -0.0699
 9662SOL     OW30426   4.113   5.332   6.728  0.2996 -0.0171  0.8088
 9662SOL    HW130427   4.181   5.345   6.663  0.6239  1.5105  1.4258
 9662SOL    HW230428   4.104   5.236   6.734 -0.1125 -0.2109 -1.8146
 9663SOL     OW30429   1.496   5.060   8.175 -0.1658  0.3592  0.4117
 9663SOL    HW130430   1.409   5.020   8.183 -0.1811  0.3279  0.0894
 9663SOL    HW230431   1.511   5.100   8.260 -1.7463  2.9153 -0.3982
 9664SOL     OW30432   0.411   4.811  10.498 -0.3199 -0.2839 -0.0300
 9664SOL    HW130433   0.501   4.794  10.527 -0.0956 -1.8542 -1.5155
 9664SOL    HW230434   0.421   4.850  10.411 -1.0744 -0.2446 -0.1033
 9665SOL     OW30435   1.802   2.022   8.196 -0.3344 -0.1134 -0.1008
 9665SOL    HW130436   1.707   2.010   8.204 -0.2669 -0.5083  0.1335
 9665SOL    HW230437   1.822   2.096   8.254 -0.9049  1.9500 -2.3536
 9666SOL     OW30438   2.746   3.830   7.778 -0.8161 -0.2410  0.3037
 9666SOL    HW130439   2.755   3.905   7.720  1.1279 -2.0630 -1.9608
 9666SOL    HW230440   2.836   3.805   7.800 -1.3990 -1.8479  1.0457
 9667SOL     OW30441   2.874   4.372   8.344 -0.3552 -0.3347 -0.1687
 9667SOL    HW130442   2.785   4.363   8.377 -0.6099  0.8111 -0.5081
 9667SOL    HW230443   2.893   4.288   8.303 -1.0396 -0.8119  0.4532
 9668SOL     OW30444   2.160   6.511   7.619  0.0711 -0.5749  0.2735
 9668SOL    HW130445   2.148   6.433   7.673  1.0609 -0.8792  0.0547
 9668SOL    HW230446   2.107   6.495   7.541  0.8665 -1.3627 -0.1136
 9669SOL     OW30447   2.130   4.599   8.440 -0.1975  0.4047  0.0834
 9669SOL    HW130448   2.156   4.509   8.420 -0.8216  0.3712 -0.6370
 9669SOL    HW230449   2.037   4.602   8.419 -0.8907  0.4637  2.7261
 9670SOL     OW30450   3.810   5.182   7.905  0.3261 -0.2648  0.5987
 9670SOL    HW130451   3.896   5.146   7.925  0.3639 -1.2365 -1.1483
 9670SOL    HW230452   3.753   5.106   7.899 -0.6186  0.3559  1.5135
 9671SOL     OW30453   3.012   3.027   6.684  0.5730 -0.0231  0.2926
 9671SOL    HW130454   3.064   3.044   6.606 -0.6256  2.9085 -0.0166
 9671SOL    HW230455   3.073   3.038   6.757  0.7738  1.9299 -0.1124
 9672SOL     OW30456   1.979   3.099   6.748 -0.1311  0.0391  0.1714
 9672SOL    HW130457   2.050   3.116   6.810  0.2319  0.6145 -0.3785
 9672SOL    HW230458   1.949   3.187   6.721 -0.9336 -0.1960  0.2632
 9673SOL     OW30459   3.419   4.883   7.990  0.4323  0.3672  0.2677
 9673SOL    HW130460   3.405   4.905   7.898 -0.1943 -1.7058 -0.2048
 9673SOL    HW230461   3.443   4.965   8.032  0.3883  1.4244 -1.6793
 9674SOL     OW30462   3.498   5.839   7.598 -0.0113  0.1168  0.1753
 9674SOL    HW130463   3.498   5.789   7.516  0.4474 -1.4505  1.0869
 9674SOL    HW230464   3.585   5.827   7.634 -0.2958  0.5445  1.0456
 9675SOL     OW30465   2.542   2.754   9.581  0.2029 -0.4167 -0.1318
 9675SOL    HW130466   2.588   2.673   9.559  3.2784  0.4846  2.1983
 9675SOL    HW230467   2.542   2.805   9.500  2.7300 -0.8282 -0.4707
 9676SOL     OW30468   2.131   5.475   8.392 -0.7546 -0.0148  0.2948
 9676SOL    HW130469   2.078   5.488   8.470 -0.2654  1.3340  0.4308
 9676SOL    HW230470   2.096   5.538   8.328  0.2251  0.4129  0.1625
 9677SOL     OW30471   2.325   4.892   7.002  0.8473 -0.0397 -0.2162
 9677SOL    HW130472   2.391   4.865   7.066 -0.9474  0.9147  2.2248
 9677SOL    HW230473   2.320   4.819   6.941  1.0093 -2.1757  2.1387
 9678SOL     OW30474   2.137   4.632   9.211 -0.0260  0.0858 -0.4014
 9678SOL    HW130475   2.196   4.661   9.141 -1.1455  0.7566 -1.0857
 9678SOL    HW230476   2.087   4.560   9.172  0.0436 -0.2111  0.0471
 9679SOL     OW30477   2.867   4.731   7.888  0.3017  0.1688  0.6997
 9679SOL    HW130478   2.950   4.770   7.916  1.2319 -1.5220  0.4206
 9679SOL    HW230479   2.875   4.638   7.910 -0.4670 -0.5205 -1.6426
 9680SOL     OW30480   2.357   5.578   9.053  0.6399  0.1428 -0.3232
 9680SOL    HW130481   2.402   5.599   8.971  0.8089 -0.3923 -0.3742
 9680SOL    HW230482   2.264   5.580   9.031  0.7132 -1.4820 -0.9184
 9681SOL     OW30483   0.249   4.501   5.849  0.5440 -0.3262 -0.5130
 9681SOL    HW130484   0.313   4.434   5.872 -0.2615 -0.6474  0.9105
 9681SOL    HW230485   0.216   4.534   5.933 -1.1023 -0.1199 -1.1841
 9682SOL     OW30486   2.487   3.173   6.537 -0.1084 -0.2068 -0.1338
 9682SOL    HW130487   2.560   3.113   6.549  1.0375  0.8122 -1.6360
 9682SOL    HW230488   2.431   3.129   6.473  0.3326 -0.0340 -0.6464
 9683SOL     OW30489   1.410   2.816   8.425 -0.3265 -0.1101 -0.5176
 9683SOL    HW130490   1.468   2.772   8.487  1.2745  0.7564 -1.3380
 9683SOL    HW230491   1.380   2.894   8.472 -1.4950 -0.9465  0.1835
 9684SOL     OW30492   1.103   3.619  10.475 -0.1395 -0.8715  0.7633
 9684SOL    HW130493   1.159   3.679  10.524  0.1910 -0.5803  0.0506
 9684SOL    HW230494   1.030   3.674  10.445 -0.6816 -1.1928  1.4755
 9685SOL     OW30495   2.992   5.092   8.065  0.5835 -0.0283 -0.4594
 9685SOL    HW130496   3.065   5.137   8.023  0.0996  0.0538 -1.2487
 9685SOL    HW230497   3.003   5.000   8.040  0.4533 -0.0253 -0.5300
 9686SOL     OW30498   2.879   4.456   7.941 -0.4454 -1.0494 -0.6692
 9686SOL    HW130499   2.843   4.429   7.856  0.1061 -2.3605 -0.5141
 9686SOL    HW230500   2.967   4.418   7.943  0.4362  0.9005 -0.4407
 9687SOL     OW30501   1.751   2.485   9.703  0.1329 -0.0183 -0.1991
 9687SOL    HW130502   1.702   2.566   9.686  0.3095  0.2267  0.4149
 9687SOL    HW230503   1.781   2.495   9.794  0.1469 -0.7812 -0.1176
 9688SOL     OW30504   1.744   4.987   8.094 -0.0659  1.0082 -0.3247
 9688SOL    HW130505   1.817   5.049   8.098 -0.3222  1.2723  0.7445
 9688SOL    HW230506   1.666   5.042   8.107 -0.5324  0.8211 -2.0799
 9689SOL     OW30507   2.798   5.580   8.543 -0.3757  0.3254  0.4779
 9689SOL    HW130508   2.783   5.527   8.621  0.3562 -1.4640 -0.5326
 9689SOL    HW230509   2.725   5.558   8.485 -0.1637  0.5722  0.1124
 9690SOL     OW30510   0.555   4.262  10.938  0.1362  0.4214 -0.2308
 9690SOL    HW130511   0.509   4.345  10.951  2.4324  1.5437  1.3746
 9690SOL    HW230512   0.550   4.218  11.023 -0.0491 -0.5534 -0.7338
 9691SOL     OW30513   0.122   5.866   9.268  0.0742 -0.1604  0.0225
 9691SOL    HW130514   0.102   5.876   9.361 -1.7448  0.4062 -0.3757
 9691SOL    HW230515   0.117   5.955   9.233 -1.5124 -0.5977 -0.9798
 9692SOL     OW30516   2.738   4.670   7.560  0.1563  0.2765  0.9964
 9692SOL    HW130517   2.719   4.744   7.616  0.8225  0.3611  1.1175
 9692SOL    HW230518   2.818   4.694   7.514 -0.9015  0.6495 -0.7718
 9693SOL     OW30519   3.909   3.673   8.122  0.2112 -0.6064 -0.4497
 9693SOL    HW130520   3.855   3.680   8.201  1.5835  0.4055  0.4341
 9693SOL    HW230521   3.893   3.755   8.075  0.7383 -0.4332 -0.3319
 9694SOL     OW30522   2.104   4.636   7.272 -0.4205  0.0983  0.1140
 9694SOL    HW130523   2.143   4.581   7.340 -0.3811  0.3756  0.3163
 9694SOL    HW230524   2.024   4.670   7.311 -0.6151 -0.0814 -0.1297
 9695SOL     OW30525   2.528   5.534   8.423  0.3038  0.1885 -0.2523
 9695SOL    HW130526   2.466   5.466   8.450 -0.0058  0.9449  1.0291
 9695SOL    HW230527   2.544   5.516   8.331 -1.2227 -0.4876 -0.4215
 9696SOL     OW30528   3.036   5.273   9.581  0.3302 -0.3452 -0.0606
 9696SOL    HW130529   3.096   5.243   9.513  0.3603 -0.5614  0.0600
 9696SOL    HW230530   2.962   5.211   9.576 -0.4003  0.5667 -0.9463
 9697SOL     OW30531   3.117   5.078   8.410 -0.3445 -0.4727 -0.0268
 9697SOL    HW130532   3.192   5.063   8.467 -0.6264  0.5713  0.6670
 9697SOL    HW230533   3.153   5.076   8.321  0.8462  1.6191  0.3430
 9698SOL     OW30534   2.692   4.885   7.761  0.1202 -0.1444 -0.8403
 9698SOL    HW130535   2.719   4.973   7.788 -1.3928  0.0103  0.2879
 9698SOL    HW230536   2.755   4.827   7.803  0.1067  0.3122 -0.1713
 9699SOL     OW30537   4.017   3.839   7.794 -0.1041  0.8763  0.2622
 9699SOL    HW130538   4.083   3.777   7.825 -0.4848  0.3076 -0.0547
 9699SOL    HW230539   3.972   3.868   7.874 -0.9456 -0.4268  0.2834
 9700SOL     OW30540   1.403   3.169   6.915 -0.2033  0.2267 -0.4724
 9700SOL    HW130541   1.486   3.208   6.941  0.5686 -1.6223 -0.0385
 9700SOL    HW230542   1.404   3.082   6.953 -1.6467 -0.4328 -1.8250
 9701SOL     OW30543   2.651   5.677   6.425  0.2084 -0.4067  0.1888
 9701SOL    HW130544   2.677   5.636   6.508 -0.4733 -0.8405  0.1966
 9701SOL    HW230545   2.715   5.643   6.361 -0.5785 -1.8448  0.1147
 9702SOL     OW30546   2.453   3.477   9.559 -0.2430  0.2031 -0.4359
 9702SOL    HW130547   2.416   3.412   9.619 -2.7654  2.4011  0.5945
 9702SOL    HW230548   2.462   3.430   9.476  1.0022 -2.2345  0.9756
 9703SOL     OW30549   3.293   4.156   6.882 -0.2243  0.1864  0.2311
 9703SOL    HW130550   3.236   4.088   6.845 -0.7603  0.1610  1.0818
 9703SOL    HW230551   3.350   4.181   6.810  0.6205 -1.8266  0.1517
 9704SOL     OW30552   1.344   5.684   7.074 -0.3763  0.5226 -0.4205
 9704SOL    HW130553   1.281   5.755   7.061 -0.1171  1.0067  0.7745
 9704SOL    HW230554   1.314   5.614   7.017  0.5635  2.3032 -3.3466
 9705SOL     OW30555   2.073   5.462   7.745  0.5897  0.1481 -0.1266
 9705SOL    HW130556   2.031   5.546   7.760  0.8675 -0.0271  1.8367
 9705SOL    HW230557   2.067   5.449   7.650 -3.3038  0.3755 -0.0783
 9706SOL     OW30558   1.100   3.920   8.567 -0.3406  0.2688  0.2410
 9706SOL    HW130559   1.065   3.980   8.632 -0.2769  0.2877  0.2589
 9706SOL    HW230560   1.024   3.876   8.530 -0.4106  0.5662  0.0250
 9707SOL     OW30561   2.509   4.586   9.598 -0.0353  0.0160  0.6767
 9707SOL    HW130562   2.544   4.563   9.511 -1.3265 -0.1584  0.1890
 9707SOL    HW230563   2.586   4.582   9.656  0.5860 -1.2973 -0.1858
 9708SOL     OW30564   3.308   3.413  10.153  0.3659  0.3794 -0.1106
 9708SOL    HW130565   3.339   3.332  10.112 -0.0991  0.1348  0.0086
 9708SOL    HW230566   3.380   3.474  10.143  0.3433  0.2629 -1.1197
 9709SOL     OW30567   3.194   4.073   8.345  0.1822  0.1400  0.2739
 9709SOL    HW130568   3.193   4.083   8.250  1.5794  1.0149  0.3108
 9709SOL    HW230569   3.287   4.060   8.366 -0.1876 -0.7070  1.4595
 9710SOL     OW30570   0.586   3.660   7.879 -0.4482  0.1334 -0.2747
 9710SOL    HW130571   0.652   3.635   7.944 -0.2256  0.9674 -0.1672
 9710SOL    HW230572   0.609   3.610   7.801  0.4123  0.5283 -0.2824
 9711SOL     OW30573   2.368   3.757   8.394  0.2312  0.5146  0.1761
 9711SOL    HW130574   2.376   3.777   8.301 -0.1630 -2.0975 -0.5074
 9711SOL    HW230575   2.454   3.724   8.419  0.0768  0.3537  0.5019
 9712SOL     OW30576   2.445   6.391   8.937  0.1247 -0.2821 -0.0516
 9712SOL    HW130577   2.474   6.422   8.851  1.0400 -1.6454 -0.2554
 9712SOL    HW230578   2.364   6.440   8.953  0.1193  0.2612 -1.5203
 9713SOL     OW30579   2.258   3.058   4.774  0.1202  0.2365  0.0829
 9713SOL    HW130580   2.339   3.020   4.740  0.0073 -0.3631  0.4707
 9713SOL    HW230581   2.261   3.150   4.746  1.3027  0.4216  0.7522
 9714SOL     OW30582   3.587   6.584   8.027 -0.3976 -0.1906  0.6818
 9714SOL    HW130583   3.549   6.618   8.108 -0.6718  0.6928  0.1982
 9714SOL    HW230584   3.512   6.555   7.975 -0.2619 -0.2836  0.5356
 9715SOL     OW30585   3.033   3.663   8.692  0.7643 -0.3351  0.2744
 9715SOL    HW130586   3.046   3.751   8.658 -0.6316  0.5400  1.8322
 9715SOL    HW230587   3.115   3.617   8.674  1.9368  1.6247  0.4117
 9716SOL     OW30588   2.603   5.719   8.034 -0.3000  0.1735 -0.5980
 9716SOL    HW130589   2.634   5.755   7.951 -0.1897  1.1147 -0.1535
 9716SOL    HW230590   2.626   5.785   8.100  0.4688 -0.9702  0.3286
 9717SOL     OW30591   1.992   7.058   8.601 -0.2412  0.2033 -0.1359
 9717SOL    HW130592   2.054   7.012   8.544 -0.3945 -0.0830 -0.0702
 9717SOL    HW230593   2.012   7.151   8.587 -0.3241  0.1409 -0.7085
 9718SOL     OW30594   1.596   4.597   6.721  0.1104 -0.3086 -0.2819
 9718SOL    HW130595   1.626   4.548   6.644  1.6566 -1.3572  0.9219
 9718SOL    HW230596   1.635   4.550   6.795 -0.8885  0.9938  1.1108
 9719SOL     OW30597   1.719   4.328   8.953 -0.5277 -0.3160 -0.3722
 9719SOL    HW130598   1.696   4.393   8.887  1.4664  1.6929  0.7506
 9719SOL    HW230599   1.799   4.288   8.921 -0.8477 -1.0595 -0.2699
 9720SOL     OW30600   3.611   3.494   7.892 -0.0909 -0.5056  0.1678
 9720SOL    HW130601   3.596   3.459   7.980 -1.2501 -0.2252  0.1090
 9720SOL    HW230602   3.539   3.458   7.840  0.2717 -0.2245 -0.5388
 9721SOL     OW30603   1.850   5.916   7.421 -0.0623 -0.2223  0.4890
 9721SOL    HW130604   1.828   6.001   7.460 -0.9210 -1.0330  1.8738
 9721SOL    HW230605   1.901   5.871   7.488  0.1320 -0.9253 -0.1146
 9722SOL     OW30606   0.655   5.667   9.886 -0.3592 -0.1002  0.0253
 9722SOL    HW130607   0.657   5.607   9.812  1.1601 -0.7653  0.5652
 9722SOL    HW230608   0.608   5.744   9.853 -2.4122 -1.5410 -0.6737
 9723SOL     OW30609   3.711   4.939   8.134  0.0208 -0.4771 -0.2411
 9723SOL    HW130610   3.712   4.946   8.038  0.6441  0.3771 -0.1870
 9723SOL    HW230611   3.746   4.852   8.152 -1.5915 -1.2851 -0.8184
 9724SOL     OW30612   1.845   4.732   7.293  0.2315  0.4903  0.3394
 9724SOL    HW130613   1.848   4.720   7.198  0.9319  1.4126  0.2312
 9724SOL    HW230614   1.757   4.764   7.310  0.0344  0.1319  0.0342
 9725SOL     OW30615   4.380   6.171   6.621 -0.1099 -0.0374  0.1963
 9725SOL    HW130616   4.444   6.231   6.659  1.1047 -0.1299 -1.5939
 9725SOL    HW230617   4.353   6.115   6.694  0.3815  1.2649  1.4075
 9726SOL     OW30618   3.773   4.491   9.114 -0.3750 -0.0258  0.2888
 9726SOL    HW130619   3.856   4.488   9.067  0.3817  1.8504  1.4141
 9726SOL    HW230620   3.725   4.564   9.075 -0.8912 -0.1843  0.6145
 9727SOL     OW30621   7.486   5.195   8.994 -0.3423  0.1113  0.3914
 9727SOL    HW130622   7.509   5.231   9.079 -1.3447  1.8892 -0.0325
 9727SOL    HW230623   7.396   5.225   8.979 -0.4386 -0.7721 -0.9783
 9728SOL     OW30624   1.377   3.103   8.467 -0.2644 -0.1679  0.1755
 9728SOL    HW130625   1.328   3.136   8.392 -0.1695  0.1494  0.2549
 9728SOL    HW230626   1.323   3.125   8.543 -0.6188 -0.9631  0.1606
 9729SOL     OW30627   2.498   4.415   8.687  0.3619 -0.3703  0.0741
 9729SOL    HW130628   2.479   4.367   8.767  0.3963 -0.7058 -0.1169
 9729SOL    HW230629   2.538   4.350   8.629 -2.2590 -0.9111 -1.2827
 9730SOL     OW30630   2.797   5.328   5.425  0.8024 -0.1566  0.2394
 9730SOL    HW130631   2.740   5.387   5.475  0.1117 -1.3092  0.8624
 9730SOL    HW230632   2.860   5.295   5.488  1.7015  0.5341 -0.2867
 9731SOL     OW30633   4.455   6.439   7.016  0.1387 -0.0311  0.4749
 9731SOL    HW130634   4.549   6.459   7.016  0.1169  0.2861 -1.2997
 9731SOL    HW230635   4.451   6.343   7.023  0.6481 -0.1204 -0.2892
 9732SOL     OW30636   0.317   5.541   8.078 -0.6651  0.2893  0.3910
 9732SOL    HW130637   0.354   5.616   8.031  0.2621 -0.5477 -0.2476
 9732SOL    HW230638   0.222   5.553   8.071 -0.5267  1.1480 -0.1196
 9733SOL     OW30639   3.433   4.961   8.418 -0.1699 -0.1803 -0.0187
 9733SOL    HW130640   3.373   4.957   8.491  0.5562 -1.7485  0.5341
 9733SOL    HW230641   3.430   4.874   8.379 -1.6720  0.9851 -2.8480
 9734SOL     OW30642   2.912   4.567   8.575 -0.4767  0.0891 -0.6052
 9734SOL    HW130643   2.821   4.581   8.601 -0.8764 -2.2987 -0.5023
 9734SOL    HW230644   2.906   4.529   8.487  0.3640 -0.8000 -0.2955
 9735SOL     OW30645   0.788   4.315   8.184  0.1208  0.2306 -0.5873
 9735SOL    HW130646   0.789   4.239   8.241  1.2298  0.5681 -0.1265
 9735SOL    HW230647   0.717   4.370   8.217 -0.2362 -0.2761 -0.5002
 9736SOL     OW30648   2.601   4.658   7.935  0.2202  0.5201  0.2502
 9736SOL    HW130649   2.652   4.722   7.985  0.7003  0.3592 -0.0213
 9736SOL    HW230650   2.604   4.691   7.845  2.1745 -0.8886 -0.2755
 9737SOL     OW30651   4.091   5.291   6.363 -0.4385 -0.3224  0.3539
 9737SOL    HW130652   4.016   5.296   6.423  0.9196  0.8424  2.0782
 9737SOL    HW230653   4.075   5.213   6.311 -2.3189 -0.6947  1.3943
 9738SOL     OW30654   2.860   4.016   8.895 -0.9095  0.0868  0.1000
 9738SOL    HW130655   2.952   4.020   8.869 -0.5382 -0.4542  1.2577
 9738SOL    HW230656   2.847   3.925   8.921 -0.9098  0.7883  2.8434
 9739SOL     OW30657   2.895   4.426   9.553  0.0274  0.5385 -0.4486
 9739SOL    HW130658   2.867   4.517   9.542  0.6705  0.6654 -1.0861
 9739SOL    HW230659   2.965   4.415   9.490  0.2669 -0.2733 -0.0495
 9740SOL     OW30660   1.448   3.976   7.530 -0.3827  0.0364  0.4935
 9740SOL    HW130661   1.520   3.957   7.469  0.6792  2.1060  0.9858
 9740SOL    HW230662   1.410   4.057   7.496 -1.9309 -0.5493  0.7634
 9741SOL     OW30663   1.682   3.336   6.462  0.5124  0.2553 -0.6781
 9741SOL    HW130664   1.719   3.384   6.388 -1.4873  1.0104 -1.2513
 9741SOL    HW230665   1.587   3.339   6.448  0.1873 -1.4469  0.7861
 9742SOL     OW30666   2.218   5.371   4.678  0.6598 -0.0663 -0.2268
 9742SOL    HW130667   2.271   5.294   4.658  0.6371  0.0193 -0.6154
 9742SOL    HW230668   2.226   5.427   4.602 -0.8698 -0.5431 -0.7937
 9743SOL     OW30669   2.027   5.242   8.856 -0.4800  0.2130 -0.1508
 9743SOL    HW130670   2.061   5.153   8.852  0.9724  0.7728 -1.3006
 9743SOL    HW230671   2.084   5.292   8.798 -1.8767  1.7075 -0.3030
 9744SOL     OW30672   3.709   6.098   8.869 -0.6429  0.0974 -0.4062
 9744SOL    HW130673   3.636   6.048   8.832  0.4374 -0.7661 -1.4346
 9744SOL    HW230674   3.772   6.105   8.798  0.8079 -0.2371  0.7999
 9745SOL     OW30675   3.677   1.975   0.065 -0.1044  0.7511 -0.0563
 9745SOL    HW130676   3.653   1.938  -0.020 -1.2075  2.1919 -0.4195
 9745SOL    HW230677   3.630   2.058   0.069 -1.4838 -0.0085  2.6883
 9746SOL     OW30678   0.687   6.098   9.565  0.4936 -0.3358  0.4644
 9746SOL    HW130679   0.741   6.097   9.487 -0.4694  1.7100 -0.3062
 9746SOL    HW230680   0.717   6.174   9.615  0.9062 -1.4410  1.9821
 9747SOL     OW30681   1.243   4.352   9.834  0.2488  0.0897 -0.2546
 9747SOL    HW130682   1.276   4.272   9.792  1.2319  0.2776  0.1637
 9747SOL    HW230683   1.199   4.399   9.763  0.9374 -0.1273 -0.8348
 9748SOL     OW30684   0.423   4.047   7.425  0.3952  0.1041 -0.2753
 9748SOL    HW130685   0.368   4.017   7.353  0.5544 -0.8132 -0.0307
 9748SOL    HW230686   0.365   4.047   7.501  0.8204 -1.3755  0.0918
 9749SOL     OW30687   2.141   5.587   8.030 -0.3582 -0.1805 -0.4662
 9749SOL    HW130688   2.050   5.609   8.010 -0.9630 -1.6330  0.5165
 9749SOL    HW230689   2.156   5.624   8.117 -0.7236 -1.7412  0.2941
 9750SOL     OW30690   1.479   4.748   6.522 -0.3442 -0.2952  0.3526
 9750SOL    HW130691   1.537   4.808   6.474  0.4165 -2.2514 -1.3411
 9750SOL    HW230692   1.521   4.738   6.608  0.4922  0.1933  0.0172
 9751SOL     OW30693   2.155   5.753   8.239  0.5063 -0.0085 -0.0023
 9751SOL    HW130694   2.235   5.767   8.288 -0.0219 -2.7239  1.8326
 9751SOL    HW230695   2.089   5.804   8.286  0.7481  0.7126 -0.4152
 9752SOL     OW30696   3.178   6.609   8.814  0.0963 -0.1971 -0.1150
 9752SOL    HW130697   3.247   6.563   8.862 -0.7247 -0.4843  0.8267
 9752SOL    HW230698   3.129   6.655   8.882 -0.7548 -0.1540 -0.7500
 9753SOL     OW30699   2.087   5.914   8.511 -0.1923  0.5270  0.5672
 9753SOL    HW130700   2.082   5.998   8.465  1.2511 -0.8630 -2.4001
 9753SOL    HW230701   2.178   5.909   8.541  0.3245 -0.7763 -1.0936
 9754SOL     OW30702   0.147   3.838   6.413  0.5286 -0.2207  0.3099
 9754SOL    HW130703   0.128   3.859   6.505 -0.8801  1.4803 -0.3072
 9754SOL    HW230704   0.216   3.772   6.417  1.7277  1.0564  2.5556
 9755SOL     OW30705   1.693   5.075   7.656  0.2901  0.6664 -0.1567
 9755SOL    HW130706   1.625   5.011   7.679  1.3088 -0.1420  0.7043
 9755SOL    HW230707   1.721   5.050   7.568  0.0826  0.4605 -0.1670
 9756SOL     OW30708   0.977   5.331   7.606 -0.2513 -0.3533  0.5071
 9756SOL    HW130709   1.003   5.239   7.603  0.5336 -0.1812  1.4253
 9756SOL    HW230710   1.042   5.376   7.551 -1.2570 -0.4472 -0.8311
 9757SOL     OW30711   2.526   5.061   6.764  0.4893 -0.5300 -0.1698
 9757SOL    HW130712   2.608   5.066   6.814  0.2137 -0.9093  0.3232
 9757SOL    HW230713   2.534   4.982   6.711  0.3670 -0.6667  0.0145
 9758SOL     OW30714   2.882   3.973   9.436 -0.1840  0.5410 -0.1207
 9758SOL    HW130715   2.845   4.023   9.509 -0.9944  1.0517 -0.8651
 9758SOL    HW230716   2.977   3.982   9.447 -0.2954  0.7517  0.7705
 9759SOL     OW30717   2.285   4.454   7.450 -0.2177  0.7799  0.0410
 9759SOL    HW130718   2.342   4.394   7.401 -0.9528  0.1830 -0.0966
 9759SOL    HW230719   2.305   4.436   7.542  0.4216  1.1740 -0.0153
 9760SOL     OW30720   2.607   3.634   8.210 -0.2090 -0.5119 -0.0431
 9760SOL    HW130721   2.609   3.728   8.192 -2.3174  0.2328  2.8668
 9760SOL    HW230722   2.699   3.608   8.211  0.5043  1.7688  0.1559
 9761SOL     OW30723   2.015   4.815   6.670 -0.3004 -0.1833 -0.0251
 9761SOL    HW130724   2.021   4.830   6.765 -1.0744 -2.5855  0.4838
 9761SOL    HW230725   1.981   4.897   6.635 -1.1009  0.3902  1.9373
 9762SOL     OW30726   0.762   5.050   7.589 -0.2640 -0.4210  0.2345
 9762SOL    HW130727   0.733   4.962   7.562  0.9033 -1.1731  1.3064
 9762SOL    HW230728   0.854   5.053   7.563  0.1193 -0.1038  1.5739
 9763SOL     OW30729   3.524   4.412   7.372  0.5235  0.2380  0.4023
 9763SOL    HW130730   3.462   4.470   7.329 -0.2716 -0.9631 -0.1241
 9763SOL    HW230731   3.472   4.336   7.398  1.2461  0.3574  2.3524
 9764SOL     OW30732   0.060   5.346   8.048 -0.1480  0.2640 -0.2569
 9764SOL    HW130733   0.009   5.427   8.051  0.1348  0.4324  1.8763
 9764SOL    HW230734   0.134   5.366   7.991  1.5842  2.6623  2.5212
 9765SOL     OW30735   2.989   6.039   5.985  0.3491  0.2767 -0.1668
 9765SOL    HW130736   2.940   5.957   5.980 -1.4460  1.1499  1.6486
 9765SOL    HW230737   3.062   6.020   6.045  0.2691 -0.1498 -0.2056
 9766SOL     OW30738   3.184   3.736  10.219 -0.1314  0.0892 -0.2238
 9766SOL    HW130739   3.201   3.689  10.137  0.6447 -2.1855  1.1669
 9766SOL    HW230740   3.136   3.814  10.191 -0.3420 -0.8430 -2.7854
 9767SOL     OW30741   1.152   3.420   9.801  0.0267  0.0340  0.1952
 9767SOL    HW130742   1.090   3.384   9.738  0.6623  1.8585 -1.6038
 9767SOL    HW230743   1.103   3.490   9.845 -0.5087 -1.4219  2.0357
 9768SOL     OW30744   1.829   4.639   8.408 -0.0470  0.6705  0.2074
 9768SOL    HW130745   1.787   4.553   8.402  0.3570 -0.0062  4.3175
 9768SOL    HW230746   1.777   4.686   8.473  1.5635  2.3776  0.3207
 9769SOL     OW30747   2.492   6.752  10.259  0.4933  0.3845 -0.0704
 9769SOL    HW130748   2.519   6.809  10.331 -3.6147  1.0551  1.1910
 9769SOL    HW230749   2.494   6.664  10.296  1.3985  0.3300 -0.2135
 9770SOL     OW30750   2.592   3.740   9.318  0.7894 -0.8707  0.0899
 9770SOL    HW130751   2.625   3.659   9.356  1.6905  0.3931  2.2156
 9770SOL    HW230752   2.533   3.775   9.385 -1.1142 -0.6894 -1.6120
 9771SOL     OW30753   3.042   5.076   9.869  0.5104  0.1079 -0.2745
 9771SOL    HW130754   3.109   5.090   9.936  0.5873 -0.1437 -0.2964
 9771SOL    HW230755   3.048   4.982   9.849  0.6701  0.2268 -0.8143
 9772SOL     OW30756   3.771   4.221   9.586 -0.3785 -0.3072  0.1856
 9772SOL    HW130757   3.770   4.272   9.505 -1.4385 -0.0990  0.3135
 9772SOL    HW230758   3.818   4.141   9.564 -1.2663 -0.5641 -0.8387
 9773SOL     OW30759   1.954   3.184  10.326 -0.7811  0.0717 -0.0302
 9773SOL    HW130760   1.997   3.137  10.255 -1.9660 -1.1409  0.0109
 9773SOL    HW230761   2.013   3.175  10.401  0.1075  0.6987 -0.6288
 9774SOL     OW30762   2.409   3.892  10.979  0.3420 -0.3404  0.5730
 9774SOL    HW130763   2.425   3.805  10.941 -1.7263 -0.8117  0.6549
 9774SOL    HW230764   2.383   3.873  11.069 -2.0687  0.1559  0.0414
 9775SOL     OW30765   0.333   5.256   9.817 -0.4897  0.4748 -0.0554
 9775SOL    HW130766   0.371   5.291   9.737  0.1703 -1.3171 -0.5796
 9775SOL    HW230767   0.264   5.197   9.788  1.6529 -2.5380  0.3828
 9776SOL     OW30768   1.759   4.167   9.956 -0.0025  0.3239  0.6496
 9776SOL    HW130769   1.690   4.101   9.965 -0.7914  0.9979 -0.2713
 9776SOL    HW230770   1.786   4.187  10.046 -1.3414  0.4013  1.0449
 9777SOL     OW30771   1.428   5.250  10.286  0.4768 -0.1759  0.0555
 9777SOL    HW130772   1.405   5.157  10.279  0.8332 -0.2501 -0.1522
 9777SOL    HW230773   1.524   5.251  10.278  0.4448  0.2387 -0.2642
 9778SOL     OW30774   3.688   4.181  10.481  0.1719 -0.0220  0.3136
 9778SOL    HW130775   3.764   4.222  10.522 -0.0715  0.8017 -0.0372
 9778SOL    HW230776   3.704   4.187  10.387 -0.8944  1.3273  0.1871
 9779SOL     OW30777   1.760   3.005   9.945  0.0157  0.3773  0.3367
 9779SOL    HW130778   1.685   2.950   9.923  0.0087  0.9718 -1.1906
 9779SOL    HW230779   1.777   3.057   9.867  3.6937 -1.6193 -0.4542
 9780SOL     OW30780   1.843   4.276  10.217 -0.1554  0.1984  0.0539
 9780SOL    HW130781   1.803   4.363  10.212  0.2014  0.3969  0.5626
 9780SOL    HW230782   1.841   4.254  10.311 -0.8804 -0.6429 -0.1442
 9781SOL     OW30783   1.874   5.016   8.679 -0.2403  0.1484  0.4035
 9781SOL    HW130784   1.950   4.974   8.719  0.6618  0.5325 -0.8570
 9781SOL    HW230785   1.807   4.947   8.676 -0.0098 -0.1568  1.6371
 9782SOL     OW30786   2.762   4.673   9.679  0.2930 -0.0705  0.0955
 9782SOL    HW130787   2.745   4.753   9.729  2.3737 -0.8244  2.1887
 9782SOL    HW230788   2.782   4.703   9.591 -0.8474  1.5347  0.3450
 9783SOL     OW30789   2.577   5.430   9.173 -0.1360 -0.5445 -0.3808
 9783SOL    HW130790   2.567   5.362   9.238 -0.6731 -0.2426 -0.1417
 9783SOL    HW230791   2.488   5.460   9.154  0.1510  0.9024  0.3896
 9784SOL     OW30792   1.988   4.852  10.073  0.1908 -0.2631 -0.0080
 9784SOL    HW130793   1.895   4.864  10.054 -0.0599  0.9288  1.7924
 9784SOL    HW230794   1.989   4.792  10.148  1.0071 -2.0513 -1.3685
 9785SOL     OW30795   3.737   5.574  11.953  0.0210  0.2962 -0.0450
 9785SOL    HW130796   3.735   5.500  11.892  1.6321  0.7463 -0.7102
 9785SOL    HW230797   3.649   5.579  11.988 -0.5352 -0.9570 -1.1760
 9786SOL     OW30798   1.972   4.320   8.630  0.3753 -0.2386 -0.3214
 9786SOL    HW130799   1.890   4.329   8.582  0.5401 -0.1949 -0.5982
 9786SOL    HW230800   1.971   4.390   8.695 -1.3222 -2.1902  1.9390
 9787SOL     OW30801   4.105   3.904  12.317 -0.4004  0.1429  0.1591
 9787SOL    HW130802   4.068   3.940  12.236 -1.6772 -0.3685  0.4878
 9787SOL    HW230803   4.070   3.815  12.322 -0.5484  0.2577  1.3956
 9788SOL     OW30804   2.650   5.761  10.478  0.2680  0.0422  0.0590
 9788SOL    HW130805   2.745   5.768  10.470  0.4815 -1.2591  1.1295
 9788SOL    HW230806   2.619   5.851  10.477  1.4245  0.4534 -1.1901
 9789SOL     OW30807   4.524   6.564   9.297 -0.3716 -0.3980 -0.4474
 9789SOL    HW130808   4.598   6.550   9.237  0.0816 -0.9617  0.2293
 9789SOL    HW230809   4.510   6.659   9.296  0.5070 -0.2564 -0.4251
 9790SOL     OW30810   1.900   4.181   9.374 -0.4073  0.1098  0.5329
 9790SOL    HW130811   1.931   4.178   9.464  1.1277  4.7426  0.4406
 9790SOL    HW230812   1.964   4.130   9.324  1.6078  1.5201  1.5634
 9791SOL     OW30813   5.335   4.912   8.486  0.4457  0.3141 -0.3037
 9791SOL    HW130814   5.252   4.929   8.441 -0.0592 -0.6570  0.2256
 9791SOL    HW230815   5.334   4.817   8.502  1.7307  0.2714 -0.4247
 9792SOL     OW30816   3.649   5.133   9.247  0.4232  0.0038  0.2969
 9792SOL    HW130817   3.618   5.072   9.180  1.1135  0.4363 -0.4339
 9792SOL    HW230818   3.674   5.212   9.199  1.0374  0.2846  1.0427
 9793SOL     OW30819   2.630   2.593  11.175 -0.2581  0.0305  0.3249
 9793SOL    HW130820   2.694   2.574  11.243  0.5259 -4.2144 -1.2976
 9793SOL    HW230821   2.681   2.632  11.104 -0.0932 -0.1801  0.3259
 9794SOL     OW30822   2.826   5.515   9.668  0.4789 -0.2498  0.1390
 9794SOL    HW130823   2.875   5.434   9.657 -0.5259 -1.1108  1.5230
 9794SOL    HW230824   2.825   5.556   9.582  1.9110 -1.1663 -0.3425
 9795SOL     OW30825   3.362   5.334  11.096  0.0343  0.6751  0.3731
 9795SOL    HW130826   3.452   5.320  11.067  0.2352  1.9753  0.3089
 9795SOL    HW230827   3.311   5.273  11.044  0.8047  0.4477 -0.1361
 9796SOL     OW30828   2.560   3.646   8.543  0.2579  0.6540 -0.2434
 9796SOL    HW130829   2.562   3.732   8.586 -3.8777  0.9957 -0.2737
 9796SOL    HW230830   2.538   3.585   8.612 -2.0153  0.5282 -0.9932
 9797SOL     OW30831   1.621   3.910   9.927 -0.2924 -0.7628  0.1834
 9797SOL    HW130832   1.663   3.854   9.992 -0.3654 -1.6245 -0.4840
 9797SOL    HW230833   1.529   3.883   9.928 -0.7246  0.6653  1.1821
 9798SOL     OW30834   2.595   4.148   9.039 -0.3541 -0.3286 -0.6123
 9798SOL    HW130835   2.595   4.078   9.104 -0.3359 -0.6856 -0.9886
 9798SOL    HW230836   2.687   4.156   9.013 -0.4303 -0.5286 -0.9502
 9799SOL     OW30837   2.886   6.593  10.841 -0.1497  0.1673  0.6464
 9799SOL    HW130838   2.967   6.640  10.861  0.3726 -0.1742 -0.6215
 9799SOL    HW230839   2.888   6.516  10.898 -0.1761  0.7610  1.4736
 9800SOL     OW30840   2.058   5.076  10.562  0.3218  0.4678 -0.0631
 9800SOL    HW130841   2.139   5.031  10.539  1.0868  1.9391 -0.3688
 9800SOL    HW230842   2.085   5.164  10.588 -1.2399  1.3991 -1.3200
 9801SOL     OW30843   2.172   5.957   8.953  0.0294  0.4521 -0.1788
 9801SOL    HW130844   2.223   5.991   9.027  2.1215 -1.9899 -0.3926
 9801SOL    HW230845   2.190   6.017   8.881  0.8489  0.8546  0.3497
 9802SOL     OW30846   4.090   4.776   9.298 -0.4049  0.6202 -0.1089
 9802SOL    HW130847   4.169   4.750   9.249 -0.0943  1.6745 -0.2063
 9802SOL    HW230848   4.109   4.865   9.327 -1.2732  0.6124  0.5086
 9803SOL     OW30849   1.534   3.999   7.785 -0.0544  0.4232 -0.2106
 9803SOL    HW130850   1.499   4.029   7.701 -0.0749 -0.1899 -0.4258
 9803SOL    HW230851   1.506   3.908   7.791  0.4934  0.2776  0.1635
 9804SOL     OW30852   3.254   2.980  11.763 -0.6811  0.3062  0.4863
 9804SOL    HW130853   3.310   2.948  11.834 -2.0532 -0.2923  1.3477
 9804SOL    HW230854   3.293   2.942  11.684 -0.1027 -0.4284  1.0956
 9805SOL     OW30855   1.875   4.731   8.858  0.0547  0.5304  0.2211
 9805SOL    HW130856   1.940   4.801   8.861  0.3287  0.2431  3.0913
 9805SOL    HW230857   1.925   4.654   8.828  0.1736  1.0774 -1.0678
 9806SOL     OW30858   0.094   4.134  11.708 -0.1748 -0.8929  0.0706
 9806SOL    HW130859   0.134   4.062  11.659 -0.7511 -1.1044 -0.0914
 9806SOL    HW230860   0.000   4.120  11.699 -0.3742  1.2217 -1.9714
 9807SOL     OW30861   4.845   1.638  11.134  0.0112 -0.1603 -0.3976
 9807SOL    HW130862   4.820   1.699  11.203  0.5377 -0.1254 -0.2280
 9807SOL    HW230863   4.766   1.587  11.117  0.1258 -0.8321  0.9286
 9808SOL     OW30864   2.973   3.074  10.309  0.2723  0.0855  0.0939
 9808SOL    HW130865   2.889   3.079  10.355  1.1428  1.4006  1.6132
 9808SOL    HW230866   2.985   3.161  10.271 -0.3401 -0.9036 -2.6129
 9809SOL     OW30867   1.741   3.833  10.808 -0.4342 -0.3061  0.0945
 9809SOL    HW130868   1.731   3.896  10.879  0.1098 -0.3194  0.1911
 9809SOL    HW230869   1.800   3.877  10.746  0.3036 -0.8807  0.3695
 9810SOL     OW30870   2.878   3.789   9.186  0.6056  0.3377 -0.4409
 9810SOL    HW130871   2.908   3.854   9.250 -0.5406 -0.2600  0.7555
 9810SOL    HW230872   2.783   3.785   9.197  0.5582 -0.9545 -1.0467
 9811SOL     OW30873   2.468   5.056  10.329 -0.2104  0.0284 -0.0292
 9811SOL    HW130874   2.465   5.146  10.362 -1.1950  0.2933 -0.7993
 9811SOL    HW230875   2.445   5.064  10.236 -0.7705 -1.0673  0.0079
 9812SOL     OW30876   2.169   4.053   9.322 -0.4692 -0.1364 -0.4826
 9812SOL    HW130877   2.218   3.985   9.274  0.2344  0.5054 -0.6908
 9812SOL    HW230878   2.183   4.031   9.414  0.9920  0.5406 -0.5111
 9813SOL     OW30879   3.080   4.729   9.202  0.3918 -0.4319  0.0421
 9813SOL    HW130880   3.157   4.765   9.245  0.6400  0.0942 -0.8219
 9813SOL    HW230881   3.059   4.650   9.252  0.8135  0.0277  0.9604
 9814SOL     OW30882   2.118   4.970   9.663 -0.0645  0.2038 -0.0996
 9814SOL    HW130883   2.143   4.950   9.574  0.9652  0.1406  0.1927
 9814SOL    HW230884   2.140   4.891   9.713  0.5815  0.7032  0.4228
 9815SOL     OW30885   4.478   1.975  10.823  0.3934 -0.7810  0.2541
 9815SOL    HW130886   4.571   1.988  10.844  0.3514 -1.4032  0.8373
 9815SOL    HW230887   4.478   1.929  10.739  0.5768  0.7896 -0.6456
 9816SOL     OW30888   2.205   6.092   7.727 -0.4873  0.1785 -0.2182
 9816SOL    HW130889   2.175   6.008   7.762  3.1182 -1.5845 -0.9519
 9816SOL    HW230890   2.183   6.089   7.634 -0.2934  0.0175 -0.2584
 9817SOL     OW30891   3.442   6.684  11.058 -0.2690  0.0091  0.0866
 9817SOL    HW130892   3.420   6.621  11.126  1.4295 -1.2699 -0.4733
 9817SOL    HW230893   3.490   6.632  10.993  0.6913  1.7773 -0.6697
 9818SOL     OW30894   3.490   4.648   9.951 -0.1443 -0.0159  0.0448
 9818SOL    HW130895   3.409   4.602   9.975 -0.9707  0.6004 -1.3847
 9818SOL    HW230896   3.553   4.579   9.932 -0.8680 -0.5559 -0.4664
 9819SOL     OW30897   2.765   4.928   0.159 -0.3664 -0.2289 -0.0714
 9819SOL    HW130898   2.676   4.908   0.189 -0.4673 -1.2225 -0.9590
 9819SOL    HW230899   2.792   5.002   0.212 -2.4406  1.3436 -1.0746
 9820SOL     OW30900   2.184   4.313   9.030 -0.0055  0.1875 -0.0836
 9820SOL    HW130901   2.202   4.220   9.025 -1.3420 -0.0733 -0.5166
 9820SOL    HW230902   2.172   4.331   9.123  2.1099  0.3415  0.2085
 9821SOL     OW30903   4.432   4.378   9.257  0.2401 -0.2053  0.2042
 9821SOL    HW130904   4.406   4.336   9.174  2.2912 -1.0409 -0.0675
 9821SOL    HW230905   4.449   4.304   9.316 -1.1608  0.3799  1.4235
 9822SOL     OW30906   2.661   4.407  12.211 -0.0339  0.8005  0.7465
 9822SOL    HW130907   2.712   4.474  12.164  1.5439 -1.8148 -1.5546
 9822SOL    HW230908   2.706   4.397  12.295  2.4546 -0.3726 -0.6328
 9823SOL     OW30909   2.045   4.252   9.783 -0.5466 -0.5420  0.2452
 9823SOL    HW130910   2.035   4.265   9.878  0.5066 -1.9262  0.5716
 9823SOL    HW230911   2.087   4.332   9.753  2.1137 -1.3186  1.5331
 9824SOL     OW30912   0.441   3.897  10.388 -0.3431  0.1122 -0.2192
 9824SOL    HW130913   0.367   3.873  10.445 -0.5487  0.9495 -0.1246
 9824SOL    HW230914   0.428   3.990  10.370  0.6076  0.2228 -0.3445
 9825SOL     OW30915   3.882   5.055   9.613 -0.0438  0.0259  0.2050
 9825SOL    HW130916   3.965   5.078   9.570  0.6571 -0.9758  0.9546
 9825SOL    HW230917   3.826   5.024   9.542 -0.0401  1.3433 -0.4130
 9826SOL     OW30918   2.857   5.579  10.271 -0.4077 -0.2146 -0.1595
 9826SOL    HW130919   2.928   5.620  10.321  1.4110 -2.2392 -0.9520
 9826SOL    HW230920   2.832   5.502  10.323 -1.6399  0.1366 -0.1966
 9827SOL     OW30921   7.720   6.801   9.164  0.0596 -0.2458 -0.1180
 9827SOL    HW130922   7.765   6.819   9.246 -0.1496 -0.2253 -0.0056
 9827SOL    HW230923   7.650   6.866   9.160 -0.4693 -0.7864  0.1089
 9828SOL     OW30924   1.595   6.538   7.362 -0.1807 -0.2784 -0.1068
 9828SOL    HW130925   1.564   6.454   7.329  1.5801 -0.4982 -1.3394
 9828SOL    HW230926   1.538   6.603   7.321 -0.8283 -0.8009 -0.0397
 9829SOL     OW30927   2.260   5.096   8.600  0.0415  0.5639  0.2342
 9829SOL    HW130928   2.238   5.059   8.686  2.8235  0.1238  0.8456
 9829SOL    HW230929   2.253   5.022   8.540 -1.2657  0.7246  0.1548
 9830SOL     OW30930   2.530   4.244   9.328 -0.3310 -0.2938  0.1919
 9830SOL    HW130931   2.534   4.286   9.242 -1.1673 -1.6453 -0.5471
 9830SOL    HW230932   2.587   4.168   9.320 -1.3779 -1.1279  0.3998
 9831SOL     OW30933   2.353   4.203   9.942 -0.0404  0.1761 -0.2025
 9831SOL    HW130934   2.299   4.251   9.880  0.4059 -0.8629 -1.4551
 9831SOL    HW230935   2.430   4.177   9.891  0.5996 -0.2420  0.9427
 9832SOL     OW30936   0.868   4.873   9.670  0.0895  0.2725 -0.0396
 9832SOL    HW130937   0.912   4.958   9.676  0.5599 -0.0681  2.2933
 9832SOL    HW230938   0.936   4.809   9.693 -1.1552 -0.3987  1.9903
 9833SOL     OW30939   0.478   6.073  10.412 -0.2755 -0.1691 -0.1312
 9833SOL    HW130940   0.411   6.035  10.469 -3.0615  0.2167 -2.8650
 9833SOL    HW230941   0.522   5.998  10.374 -1.7202 -0.6036 -1.0380
 9834SOL     OW30942   2.209   4.050   9.015  0.5175  0.1223 -0.1607
 9834SOL    HW130943   2.184   4.071   8.926  1.8659  0.4233 -0.4977
 9834SOL    HW230944   2.149   3.981   9.042  0.1610 -0.0443 -1.3413
 9835SOL     OW30945   3.250   4.623   9.567 -0.1919  0.8316  0.0455
 9835SOL    HW130946   3.250   4.560   9.638  1.9406  1.0556  0.2942
 9835SOL    HW230947   3.296   4.579   9.495  1.0908  1.9789  0.1366
 9836SOL     OW30948   3.396   5.197   9.698 -0.0380 -0.1491 -0.1782
 9836SOL    HW130949   3.421   5.235   9.613  0.3986  2.2722  0.9423
 9836SOL    HW230950   3.447   5.117   9.704  1.7991  0.8700 -1.2097
 9837SOL     OW30951   2.729   3.205   8.409 -0.4507  0.3064  0.4294
 9837SOL    HW130952   2.639   3.173   8.417 -0.0375 -1.2998 -0.6836
 9837SOL    HW230953   2.775   3.132   8.367  1.2979  1.2265  0.7063
 9838SOL     OW30954   4.592   4.228  10.197  0.0766 -0.2886 -0.2910
 9838SOL    HW130955   4.526   4.182  10.146 -0.3926  0.9347 -0.8317
 9838SOL    HW230956   4.545   4.264  10.272  0.2662  0.0036 -0.3088
 9839SOL     OW30957   2.498   4.855   7.210  0.1077 -0.1435  0.2784
 9839SOL    HW130958   2.584   4.812   7.207  0.0409 -0.2864 -2.3149
 9839SOL    HW230959   2.518   4.948   7.221  0.6385 -0.1499 -0.5219
 9840SOL     OW30960   1.146   4.231   8.461  0.1454 -0.0914 -0.5919
 9840SOL    HW130961   1.124   4.213   8.553 -0.1337  0.8191 -0.4655
 9840SOL    HW230962   1.185   4.150   8.429  0.4828 -0.3410  0.4094
 9841SOL     OW30963   1.606   1.435  10.646 -0.2137 -0.2881  0.1529
 9841SOL    HW130964   1.581   1.424  10.738 -0.4944  0.5499  0.1817
 9841SOL    HW230965   1.682   1.494  10.649  1.1246 -1.9144 -0.0153
 9842SOL     OW30966   1.006   3.904  11.575  0.3532 -0.0352  0.0394
 9842SOL    HW130967   0.973   3.959  11.504  0.5412 -1.1715 -0.9579
 9842SOL    HW230968   0.928   3.877  11.624  0.0592 -0.5254 -0.6902
 9843SOL     OW30969   2.406   5.910   9.527  0.0421 -0.6461 -0.4460
 9843SOL    HW130970   2.326   5.858   9.523 -0.6460  0.3116  0.2448
 9843SOL    HW230971   2.378   5.994   9.563  1.5805 -0.7472  1.1392
 9844SOL     OW30972   3.461   4.489  10.784 -0.1449 -0.4512  0.2684
 9844SOL    HW130973   3.412   4.410  10.765  0.7442 -1.1792  0.8953
 9844SOL    HW230974   3.475   4.486  10.879 -0.8242  0.8886  0.4286
 9845SOL     OW30975   2.565   2.615   8.905  0.2206  0.2326 -0.5837
 9845SOL    HW130976   2.638   2.572   8.950  0.9973  1.3002 -0.7859
 9845SOL    HW230977   2.491   2.556   8.918  1.2607 -1.2139 -0.9434
 9846SOL     OW30978   0.962   4.389  10.217 -0.4474  0.7393 -0.0386
 9846SOL    HW130979   0.978   4.448  10.291 -2.5720  0.6600  0.5628
 9846SOL    HW230980   1.049   4.358  10.191  0.5580  2.6672  0.8336
 9847SOL     OW30981   2.394   3.332  10.964  0.0415  0.1188  0.1049
 9847SOL    HW130982   2.307   3.351  10.928 -0.3443 -1.1862  0.3212
 9847SOL    HW230983   2.378   3.312  11.056  0.4484 -0.9627 -0.0506
 9848SOL     OW30984   2.037   1.742   9.824 -1.1206  0.2264  0.3052
 9848SOL    HW130985   2.049   1.744   9.919 -0.3044  1.7209  0.1901
 9848SOL    HW230986   1.965   1.802   9.807 -0.1123  1.3445 -0.1541
 9849SOL     OW30987   1.442   3.463   9.722  0.0107 -0.4868 -0.5232
 9849SOL    HW130988   1.362   3.418   9.749  0.2235 -0.8406 -0.4648
 9849SOL    HW230989   1.503   3.392   9.702  1.0235 -0.2659  1.5054
 9850SOL     OW30990   1.895   5.297  11.086  0.3856  0.3240 -0.2115
 9850SOL    HW130991   1.938   5.272  11.168  0.5307 -0.6217 -0.5627
 9850SOL    HW230992   1.923   5.231  11.023 -2.1593 -0.8582 -0.2672
 9851SOL     OW30993   0.762   5.617  10.782 -0.2924  0.1910 -0.1610
 9851SOL    HW130994   0.744   5.687  10.720  0.4237  0.2134 -0.3603
 9851SOL    HW230995   0.696   5.550  10.764 -1.4699  1.1379  0.5588
 9852SOL     OW30996   2.275   4.000  10.725 -0.0596  0.0785  0.1056
 9852SOL    HW130997   2.266   3.933  10.792  1.6877  0.1853  0.4902
 9852SOL    HW230998   2.256   4.082  10.770 -0.2967  0.0283  0.1015
 9853SOL     OW30999   2.050   6.191   8.485 -0.1992  0.4065 -0.4090
 9853SOL    HW131000   2.098   6.249   8.426 -1.1337  1.0689 -0.5320
 9853SOL    HW231001   1.959   6.199   8.458 -0.5940  0.4339  0.8597
 9854SOL     OW31002   2.529   5.058   8.193  0.5164  0.1715  0.2423
 9854SOL    HW131003   2.501   4.972   8.164 -2.1323  1.8677 -2.8758
 9854SOL    HW231004   2.476   5.076   8.271 -0.1061 -0.3710 -0.0525
 9855SOL     OW31005   2.041   3.969  10.002  0.0019  0.5521  0.1308
 9855SOL    HW131006   1.946   3.972  10.014 -0.1844  0.9435 -1.2595
 9855SOL    HW231007   2.070   4.059  10.015  0.1815  0.4560  0.4241
 9856SOL     OW31008   3.318   4.456   9.755 -0.1813  0.6849 -0.0947
 9856SOL    HW131009   3.282   4.467   9.843  0.7180 -0.2996  0.4157
 9856SOL    HW231010   3.306   4.363   9.736  0.8649  0.6148 -0.4609
 9857SOL     OW31011   2.053   4.681  10.309  0.5568  0.3534  0.1731
 9857SOL    HW131012   1.979   4.716  10.358  0.4007  1.0690 -0.5539
 9857SOL    HW231013   2.121   4.664  10.375  0.0598  0.5211  0.7292
 9858SOL     OW31014   4.464   2.444  11.741 -0.0164  0.5057 -0.6339
 9858SOL    HW131015   4.402   2.496  11.794  0.6285  0.7745 -0.1333
 9858SOL    HW231016   4.496   2.377  11.801  0.4445  0.5853 -0.7901
 9859SOL     OW31017   3.621   5.015   9.723  0.1036 -0.1315 -0.5474
 9859SOL    HW131018   3.709   5.051   9.717 -0.0235  0.1167 -0.9776
 9859SOL    HW231019   3.599   4.989   9.634 -0.6147  0.6714 -0.6161
 9860SOL     OW31020   2.494   2.868  10.265 -0.0838 -0.0333  0.5517
 9860SOL    HW131021   2.523   2.819  10.342 -1.2105 -0.4485  0.7429
 9860SOL    HW231022   2.574   2.898  10.223  0.5800  1.3902  2.6540
 9861SOL     OW31023   0.971   3.555  11.418 -0.4539 -0.3908  0.0132
 9861SOL    HW131024   0.921   3.635  11.430  0.9697  0.4779  0.3452
 9861SOL    HW231025   0.964   3.536  11.324  1.5701  1.7632 -0.6375
 9862SOL     OW31026   1.654   4.344   9.390  0.3000  1.0567  0.0641
 9862SOL    HW131027   1.649   4.276   9.324 -1.9566  1.3255 -0.1245
 9862SOL    HW231028   1.747   4.366   9.396  1.0817 -1.8785  0.0279
 9863SOL     OW31029   1.435   4.186  11.282 -0.0809 -0.5561  0.2623
 9863SOL    HW131030   1.489   4.116  11.319  0.5318  0.5637  1.5925
 9863SOL    HW231031   1.408   4.238  11.358  0.6079  1.4254 -0.7725
 9864SOL     OW31032   1.442   4.653  10.106 -0.8491 -0.0460  0.5802
 9864SOL    HW131033   1.500   4.583  10.137 -1.6350 -0.6093  0.8083
 9864SOL    HW231034   1.500   4.714  10.060  0.1385  0.0900  1.9309
 9865SOL     OW31035   2.448   7.748   9.757 -0.2464  0.2014  0.7223
 9865SOL    HW131036   2.382   7.772   9.693  0.1550  0.7382  0.5083
 9865SOL    HW231037   2.529   7.741   9.707  0.2676  1.6170  1.3289
 9866SOL     OW31038   2.852   6.923   7.086  0.0109  0.3641  0.5716
 9866SOL    HW131039   2.764   6.960   7.095  0.4194  1.5452 -0.0265
 9866SOL    HW231040   2.841   6.845   7.032 -0.3968  1.8079 -1.5401
 9867SOL     OW31041   2.156   3.256  11.335 -0.0099 -0.0880 -0.0537
 9867SOL    HW131042   2.229   3.314  11.358 -0.3323  0.2500  0.1177
 9867SOL    HW231043   2.096   3.311  11.285  1.2509 -1.0907 -2.8969
 9868SOL     OW31044   3.065   6.010   7.953  0.0423  0.2825 -0.5024
 9868SOL    HW131045   3.041   5.927   7.912  1.5873 -0.5282  0.1591
 9868SOL    HW231046   3.070   6.072   7.880 -0.7709 -0.2735 -1.0475
 9869SOL     OW31047   2.322   4.820  11.258  0.5070  0.0767  0.2945
 9869SOL    HW131048   2.313   4.880  11.332  3.8495  0.9834  0.1086
 9869SOL    HW231049   2.296   4.872  11.182 -0.0679  0.1010  0.5025
 9870SOL     OW31050   4.372   3.103  10.065 -0.0912 -0.7116 -0.7483
 9870SOL    HW131051   4.435   3.043  10.103 -0.1526 -1.1634 -1.3460
 9870SOL    HW231052   4.369   3.080   9.972  1.2228  1.3978 -1.3764
 9871SOL     OW31053   2.487   5.340   9.754 -0.3385 -0.2593 -0.3911
 9871SOL    HW131054   2.524   5.317   9.839  1.2755  1.7723 -0.4505
 9871SOL    HW231055   2.509   5.433   9.744 -0.0852 -0.5639 -3.2224
 9872SOL     OW31056   1.714   5.621  10.979 -0.8773 -0.0455 -0.7366
 9872SOL    HW131057   1.804   5.588  10.977 -0.4545  1.1006 -1.1965
 9872SOL    HW231058   1.674   5.576  11.054  0.5422  0.5992  0.4599
 9873SOL     OW31059   3.789   5.730   9.327 -0.6689  0.3652 -0.0958
 9873SOL    HW131060   3.853   5.759   9.262  0.5389  0.0205  0.9047
 9873SOL    HW231061   3.740   5.661   9.283 -1.6046  1.8456 -1.4908
 9874SOL     OW31062   2.369   3.928  10.095  0.2858  0.5166 -0.1025
 9874SOL    HW131063   2.343   4.011  10.053 -1.4555  0.1376  0.1697
 9874SOL    HW231064   2.356   3.862  10.027  1.2944  0.3899 -0.1908
 9875SOL     OW31065   3.110   3.434   0.985  0.0186  0.1379  0.1602
 9875SOL    HW131066   3.074   3.371   1.047 -0.5386 -1.3184 -1.5450
 9875SOL    HW231067   3.056   3.512   0.996 -1.8423 -1.0209 -0.3471
 9876SOL     OW31068   2.086   5.335   9.980 -0.1266  0.4753 -0.1853
 9876SOL    HW131069   2.121   5.255  10.019 -0.9102  0.5262  0.6450
 9876SOL    HW231070   2.039   5.305   9.902 -0.3706  0.1262  0.0938
 9877SOL     OW31071   2.668   3.910  10.430  0.0109  0.4408  0.1929
 9877SOL    HW131072   2.673   3.896  10.525  0.5567 -0.8173  0.0027
 9877SOL    HW231073   2.576   3.927  10.413  0.1395  2.4586  1.1461
 9878SOL     OW31074   2.846   4.330   8.965  0.0611  0.4350 -0.2852
 9878SOL    HW131075   2.854   4.241   8.930 -1.1343  0.0587  0.3399
 9878SOL    HW231076   2.889   4.385   8.899 -0.1494 -0.4868 -1.2358
 9879SOL     OW31077   1.819   3.948  10.178  1.0957 -0.0681  0.4820
 9879SOL    HW131078   1.763   3.889  10.229 -2.8931  1.7988 -1.3379
 9879SOL    HW231079   1.849   4.013  10.242 -2.4737  1.3014  0.9958
 9880SOL     OW31080   1.868   5.126   9.510 -0.5433  0.2518  0.1386
 9880SOL    HW131081   1.814   5.049   9.529 -0.8778  0.6539  0.8683
 9880SOL    HW231082   1.857   5.141   9.417 -0.3685 -0.6635 -0.0417
 9881SOL     OW31083   3.755   3.390  11.450 -0.0099 -0.3959 -1.0868
 9881SOL    HW131084   3.746   3.448  11.375 -1.9699  0.4715 -0.2518
 9881SOL    HW231085   3.728   3.304  11.417 -0.0830 -0.1864 -1.5795
 9882SOL     OW31086   3.632   6.181   9.398 -0.3615  0.2197 -0.2985
 9882SOL    HW131087   3.673   6.160   9.314  2.5485  2.2971  0.4347
 9882SOL    HW231088   3.644   6.103   9.451  0.3250 -0.1292 -0.9436
 9883SOL     OW31089   2.665   4.856   9.929 -0.0685 -0.2604  0.0404
 9883SOL    HW131090   2.698   4.874  10.017  0.5687 -1.4247  0.0644
 9883SOL    HW231091   2.570   4.857   9.938 -0.0119 -1.0713  0.9229
 9884SOL     OW31092   2.461   4.570   9.239  0.4303 -0.5476 -0.6764
 9884SOL    HW131093   2.468   4.579   9.144 -1.7175  1.0322 -0.7641
 9884SOL    HW231094   2.384   4.515   9.252  0.5800 -0.5705  0.1604
 9885SOL     OW31095   2.918   6.258  10.503  0.6897 -0.2191  0.4099
 9885SOL    HW131096   2.886   6.234  10.590  0.2343  0.3808  0.4195
 9885SOL    HW231097   2.903   6.181  10.449  1.8216 -0.9282  1.0657
 9886SOL     OW31098   2.298   5.855  11.800 -0.3104 -0.2423  0.0924
 9886SOL    HW131099   2.370   5.793  11.809 -0.5074 -0.8258 -1.8113
 9886SOL    HW231100   2.270   5.846  11.709 -1.9822  0.8734  0.4447
 9887SOL     OW31101   3.712   4.844  11.436 -0.2570 -0.3948  0.9173
 9887SOL    HW131102   3.786   4.859  11.495 -1.0269 -2.0173  2.3736
 9887SOL    HW231103   3.635   4.842  11.493 -0.7964 -4.2482  0.3179
 9888SOL     OW31104   1.024   4.571  11.428 -0.3017  0.2004 -0.2207
 9888SOL    HW131105   1.012   4.651  11.480  2.7248  0.2272  0.6284
 9888SOL    HW231106   1.097   4.591  11.370 -1.9907 -0.7157 -2.8112
 9889SOL     OW31107   1.257   6.145   9.400  0.7083  0.5401 -0.2176
 9889SOL    HW131108   1.305   6.191   9.469  0.8557  0.7221 -0.4409
 9889SOL    HW231109   1.241   6.211   9.333 -0.9580  0.7877  0.3966
 9890SOL     OW31110   1.244   4.136   8.965  0.1558  0.1638 -0.2484
 9890SOL    HW131111   1.324   4.163   8.920 -0.4221  0.7101 -0.9600
 9890SOL    HW231112   1.230   4.204   9.031  0.6142 -0.2688  0.3140
 9891SOL     OW31113   1.094   4.706  10.109 -0.6921  0.4954 -0.1589
 9891SOL    HW131114   1.127   4.710  10.199 -1.0213  2.5934 -0.0854
 9891SOL    HW231115   1.169   4.676  10.058 -0.3616 -0.2561  0.7492
 9892SOL     OW31116   3.200   3.548  11.740 -0.0160  0.4162  0.4305
 9892SOL    HW131117   3.162   3.583  11.821 -0.2595 -0.3772  0.6701
 9892SOL    HW231118   3.275   3.496  11.770 -0.6767 -0.6666  0.2353
 9893SOL     OW31119   1.310   3.791  11.801 -0.1783  0.5655  0.2525
 9893SOL    HW131120   1.348   3.704  11.790 -0.8918  0.2071  0.5322
 9893SOL    HW231121   1.327   3.813  11.893  0.0531  0.7449  0.1663
 9894SOL     OW31122   2.622   3.885   8.648 -0.0823 -0.1962 -0.1933
 9894SOL    HW131123   2.657   3.971   8.627  2.7524 -1.2702 -0.3226
 9894SOL    HW231124   2.562   3.901   8.721  0.0189  1.9300 -0.5129
 9895SOL     OW31125   1.830   5.428  10.332 -0.7505 -0.3957  0.6330
 9895SOL    HW131126   1.917   5.391  10.322 -0.9598 -0.7798  0.2339
 9895SOL    HW231127   1.807   5.410  10.423 -0.3273 -0.0936  0.8068
 9896SOL     OW31128   2.588   4.383   7.874  0.6058 -0.1893  0.2674
 9896SOL    HW131129   2.645   4.378   7.797 -0.6253  0.4167 -0.7288
 9896SOL    HW231130   2.597   4.473   7.905 -1.7942  0.8002 -1.5678
 9897SOL     OW31131   3.335   3.028  10.790  0.1132  0.4513  0.3073
 9897SOL    HW131132   3.272   3.099  10.799  1.0959  1.3695  0.2525
 9897SOL    HW231133   3.414   3.071  10.756  0.1605 -0.9736 -1.5597
 9898SOL     OW31134   1.985   5.670  11.056  0.3737 -0.2963 -0.5033
 9898SOL    HW131135   2.067   5.619  11.054  0.3149 -0.4269  0.1791
 9898SOL    HW231136   1.980   5.703  11.146 -0.7393 -0.9854 -0.2988
 9899SOL     OW31137   1.154   4.417  10.909  0.0114 -0.2015  0.2838
 9899SOL    HW131138   1.210   4.354  10.957  1.1130  0.0234 -0.6528
 9899SOL    HW231139   1.124   4.478  10.976  2.3271  0.6956  0.6229
 9900SOL     OW31140   2.851   4.415   9.254  0.6357  0.4719  0.1715
 9900SOL    HW131141   2.872   4.396   9.163  1.0298  1.4774  0.0433
 9900SOL    HW231142   2.935   4.432   9.296  0.4217  0.4490  0.6191
 9901SOL     OW31143   2.464   5.621   9.856 -0.2548 -0.1112  0.8559
 9901SOL    HW131144   2.533   5.578   9.907  1.1383 -1.9275 -2.2936
 9901SOL    HW231145   2.510   5.688   9.805 -1.3413  0.6172  0.7797
 9902SOL     OW31146   4.320   4.914   9.931 -0.3746  0.1052  0.2502
 9902SOL    HW131147   4.270   4.861   9.993  1.8382 -1.5845  0.7242
 9902SOL    HW231148   4.314   4.866   9.848 -0.3951  0.4450  0.0533
 9903SOL     OW31149   2.847   5.956  11.357  0.3415  0.4326  0.5289
 9903SOL    HW131150   2.830   5.864  11.377 -1.0986  0.8793  1.5048
 9903SOL    HW231151   2.942   5.962  11.350  0.4031 -1.6602 -2.3281
 9904SOL     OW31152   1.303   2.559  11.579 -0.0539  0.1738  0.0400
 9904SOL    HW131153   1.286   2.647  11.545 -0.0695  0.9044  1.8289
 9904SOL    HW231154   1.227   2.507  11.551  0.1077  0.6097 -1.3038
 9905SOL     OW31155   2.992   4.990  11.084 -0.2020  0.6968 -0.3918
 9905SOL    HW131156   3.031   4.970  11.170 -1.4242 -1.9146 -0.3290
 9905SOL    HW231157   3.059   5.040  11.039  1.1973  0.6329  1.4782
 9906SOL     OW31158   2.724   5.428   8.765  0.1036  0.0162  0.0584
 9906SOL    HW131159   2.642   5.379   8.763  0.0808  0.0430  0.3929
 9906SOL    HW231160   2.718   5.484   8.841 -1.2019  2.8978 -2.0003
 9907SOL     OW31161   0.201   4.110  10.705  0.2065 -0.0754 -0.3111
 9907SOL    HW131162   0.281   4.059  10.719  0.7585  0.7320 -0.4029
 9907SOL    HW231163   0.130   4.047  10.714  0.9177 -1.1305 -1.6724
 9908SOL     OW31164   2.171   6.342   9.822 -0.3242 -0.2127 -0.2341
 9908SOL    HW131165   2.162   6.411   9.888  1.3978 -2.2766  2.3828
 9908SOL    HW231166   2.231   6.378   9.757 -0.5510  1.2453  0.3331
 9909SOL     OW31167   2.927   4.889   8.519 -0.3774  0.0931  0.4334
 9909SOL    HW131168   2.955   4.976   8.489  0.1567 -0.3674 -0.4673
 9909SOL    HW231169   2.936   4.892   8.614 -1.6507  1.4510  0.5362
 9910SOL     OW31170   3.835   5.528   9.557  0.1653 -0.2662 -0.2943
 9910SOL    HW131171   3.832   5.604   9.500  1.5657 -1.0706 -1.5049
 9910SOL    HW231172   3.836   5.453   9.498 -0.2587 -1.2119  0.8463
 9911SOL     OW31173   3.782   6.001   9.852  0.5273 -0.6039 -0.7881
 9911SOL    HW131174   3.749   6.055   9.780 -0.6228 -0.0006  0.1575
 9911SOL    HW231175   3.851   6.054   9.892 -2.5230  1.7297  2.0127
 9912SOL     OW31176   1.714   4.312   9.732 -0.2785  0.4967  0.5372
 9912SOL    HW131177   1.728   4.227   9.774 -2.0764 -0.3315 -0.4191
 9912SOL    HW231178   1.758   4.375   9.790  1.7407 -1.1225  0.8863
 9913SOL     OW31179   0.979   5.133   9.646 -0.0836  0.0613 -0.0136
 9913SOL    HW131180   0.898   5.183   9.654  0.3193  0.9375 -1.0471
 9913SOL    HW231181   0.995   5.130   9.551  0.2532 -1.4881  0.0667
 9914SOL     OW31182   3.530   3.860   9.646 -0.8404  0.1700 -0.5013
 9914SOL    HW131183   3.434   3.861   9.638 -0.9057  1.4371  0.1917
 9914SOL    HW231184   3.555   3.952   9.640  0.4473 -0.2345 -1.7051
 9915SOL     OW31185   3.033   4.809   9.832  0.5193  0.4044 -0.5997
 9915SOL    HW131186   3.029   4.763   9.916 -1.8619 -0.6084 -1.1568
 9915SOL    HW231187   2.989   4.749   9.771 -0.6970  2.4688 -1.8517
 9916SOL     OW31188   2.105   5.432  10.390 -0.0874 -0.1122  0.2515
 9916SOL    HW131189   2.113   5.400  10.301  0.1526  0.4628  0.0620
 9916SOL    HW231190   2.196   5.442  10.421 -0.1659 -0.1785  0.5125
 9917SOL     OW31191   1.796   3.776   8.347 -0.9314  0.1041 -0.3216
 9917SOL    HW131192   1.798   3.857   8.397 -1.0514  1.2095 -2.0268
 9917SOL    HW231193   1.748   3.798   8.267 -1.0226 -1.6710 -0.8122
 9918SOL     OW31194   2.271   4.584   8.683  0.0230  0.1764 -0.1553
 9918SOL    HW131195   2.360   4.552   8.666 -0.0036  0.0601 -0.0725
 9918SOL    HW231196   2.222   4.561   8.604 -0.0468 -0.1717 -0.0128
 9919SOL     OW31197   1.819   6.205   8.341 -0.5598 -0.3526 -0.1848
 9919SOL    HW131198   1.749   6.144   8.364  0.1530 -1.6247 -1.2104
 9919SOL    HW231199   1.799   6.233   8.252  0.1972 -0.7220 -0.4876
 9920SOL     OW31200   3.076   0.279  10.018  0.1461 -0.1244  0.1328
 9920SOL    HW131201   3.015   0.301  10.088 -0.1742 -0.9348  0.1198
 9920SOL    HW231202   3.031   0.306   9.938  0.7354  1.3046  0.2409
 9921SOL     OW31203   5.323   3.114   8.920 -0.1196  0.3130  0.4760
 9921SOL    HW131204   5.238   3.113   8.876 -0.7649 -0.0422  1.7111
 9921SOL    HW231205   5.375   3.050   8.872 -1.2685 -1.1408  1.0733
 9922SOL     OW31206   1.497   5.241   9.962  0.0056  0.0011 -0.1678
 9922SOL    HW131207   1.583   5.264   9.997  0.2305  1.1697 -1.3994
 9922SOL    HW231208   1.494   5.145   9.964  1.3612 -0.0500 -0.1922
 9923SOL     OW31209   2.614   5.777   8.686 -0.4203 -0.1285 -0.4758
 9923SOL    HW131210   2.664   5.717   8.631  0.1515 -0.4356  0.3455
 9923SOL    HW231211   2.682   5.829   8.731 -0.8890  0.6336 -0.6408
 9924SOL     OW31212   0.030   6.148  11.422  0.4836 -0.6103 -0.4996
 9924SOL    HW131213  -0.040   6.200  11.381  1.2435  1.4322  0.6279
 9924SOL    HW231214  -0.014   6.069  11.453 -1.2297  0.3402 -0.3605
 9925SOL     OW31215   3.853   5.428   9.283  0.2345  0.1505 -1.3929
 9925SOL    HW131216   3.890   5.349   9.324  1.5007  1.4527  0.1400
 9925SOL    HW231217   3.784   5.396   9.227 -1.1838 -1.8999  1.2877
 9926SOL     OW31218   3.507   5.148   8.022  0.7379  0.1715 -0.4241
 9926SOL    HW131219   3.518   5.171   7.930 -1.1041  2.2661 -0.2188
 9926SOL    HW231220   3.594   5.122   8.051  1.4116 -0.2679 -2.6702
 9927SOL     OW31221   3.003   4.636  10.053 -0.4465 -0.3592 -0.8659
 9927SOL    HW131222   2.950   4.574  10.003 -1.1742  0.0199 -0.5854
 9927SOL    HW231223   3.086   4.591  10.066 -1.2817 -1.7053  0.1749
 9928SOL     OW31224   5.246   4.643  11.178 -0.4817 -0.3935  0.8814
 9928SOL    HW131225   5.184   4.698  11.130 -1.4875 -1.7715  0.5352
 9928SOL    HW231226   5.276   4.579  11.114  0.2568 -0.5935  1.4089
 9929SOL     OW31227   2.373   4.842   9.202 -0.0437 -0.1888  0.4009
 9929SOL    HW131228   2.286   4.845   9.162 -0.2881  0.5944  0.9529
 9929SOL    HW231229   2.377   4.757   9.246 -0.1668 -0.6200 -0.4067
 9930SOL     OW31230   3.941   3.680   9.946  0.1015 -0.2187 -0.0071
 9930SOL    HW131231   3.940   3.704  10.039 -0.7285 -1.0376  0.2116
 9930SOL    HW231232   3.849   3.678   9.921  0.3566  1.4861 -1.2769
 9931SOL     OW31233   1.470   5.424   8.300  0.2254 -0.0186 -0.3095
 9931SOL    HW131234   1.502   5.482   8.369  1.4254 -0.8298 -0.1311
 9931SOL    HW231235   1.544   5.416   8.239 -1.2066  1.6537 -2.4077
 9932SOL     OW31236   3.826   6.042  11.507 -0.1048  0.2001  0.9687
 9932SOL    HW131237   3.818   6.023  11.601  0.4247 -0.3151  0.9153
 9932SOL    HW231238   3.844   5.957  11.467 -1.3884  0.2221  0.2627
 9933SOL     OW31239   3.182   5.053   9.404  0.8624  0.3090  0.4772
 9933SOL    HW131240   3.262   5.012   9.371  0.4924  1.4436 -2.1226
 9933SOL    HW231241   3.144   4.988   9.462  2.6486 -1.0728  0.2048
 9934SOL     OW31242   7.912   5.908  11.482 -0.3110 -0.8260 -0.7868
 9934SOL    HW131243   7.912   5.894  11.577 -0.1349  0.2661 -0.6137
 9934SOL    HW231244   8.000   5.885  11.455 -0.1264 -0.3952 -0.5619
 9935SOL     OW31245   2.788   3.478   9.325 -0.3288 -0.4226  0.3542
 9935SOL    HW131246   2.855   3.531   9.370  1.2810  0.6679 -2.9519
 9935SOL    HW231247   2.789   3.394   9.371  0.8650  0.6600  2.4962
 9936SOL     OW31248   3.166   1.888  10.397 -0.1743 -0.1252  0.4419
 9936SOL    HW131249   3.135   1.837  10.471 -1.1669 -0.6167 -0.2910
 9936SOL    HW231250   3.262   1.881  10.402 -0.2608 -1.4457  0.7981
 9937SOL     OW31251   2.469   3.450   8.388 -0.1725 -0.1933 -0.3013
 9937SOL    HW131252   2.387   3.442   8.339  0.4462 -2.1048 -1.1038
 9937SOL    HW231253   2.506   3.533   8.358 -1.0118 -0.1252 -1.2037
 9938SOL     OW31254   1.507   4.542   9.215  0.6102  0.2729 -0.2340
 9938SOL    HW131255   1.580   4.482   9.231  3.3394  3.7623  1.7267
 9938SOL    HW231256   1.482   4.524   9.124  3.0164 -1.9740 -0.5828
 9939SOL     OW31257   2.906   5.217   8.854 -0.7330 -0.5526 -0.2514
 9939SOL    HW131258   2.982   5.269   8.880  0.4931 -1.2716 -2.2136
 9939SOL    HW231259   2.867   5.266   8.782 -2.1235 -0.2455  0.6658
 9940SOL     OW31260   1.683   4.486  10.516  0.4186  0.4965 -0.0411
 9940SOL    HW131261   1.748   4.537  10.468  1.3234 -1.3006 -0.8043
 9940SOL    HW231262   1.622   4.456  10.448  0.8440 -0.7935  0.1314
 9941SOL     OW31263   3.077   6.326  10.269 -0.5881  0.2430  0.7973
 9941SOL    HW131264   3.138   6.256  10.292  1.5335  1.5299 -0.5982
 9941SOL    HW231265   3.021   6.288  10.202 -1.3294 -0.9148  2.0073
 9942SOL     OW31266   0.812   1.599  11.344 -0.2278 -0.2885 -0.1181
 9942SOL    HW131267   0.882   1.662  11.360 -0.8123 -0.1328  2.1117
 9942SOL    HW231268   0.775   1.625  11.260  0.7405  1.1910 -0.1210
 9943SOL     OW31269   4.995   4.739  11.047 -0.1916 -0.0236  0.0812
 9943SOL    HW131270   4.958   4.652  11.066 -0.4376 -0.4232 -1.9759
 9943SOL    HW231271   4.936   4.776  10.982  0.1441  1.5511  0.6423
 9944SOL     OW31272   3.753   5.419  10.529  0.6788 -0.2485  0.1891
 9944SOL    HW131273   3.815   5.350  10.548  0.6921 -0.3129 -0.0790
 9944SOL    HW231274   3.689   5.416  10.601  0.6830 -0.5327  0.1787
 9945SOL     OW31275   2.588   5.803   9.711 -0.0711  0.3376 -0.3192
 9945SOL    HW131276   2.523   5.834   9.647  0.0609  1.7894  0.2155
 9945SOL    HW231277   2.651   5.875   9.717  0.7485 -0.4277  0.3061
 9946SOL     OW31278   3.288   3.467  11.464 -0.0452 -0.8178 -0.2915
 9946SOL    HW131279   3.240   3.467  11.546 -0.5681 -1.2083 -0.5892
 9946SOL    HW231280   3.250   3.540  11.414  1.3241  0.4145  0.3979
 9947SOL     OW31281   1.282   3.777  10.206 -1.0299  0.2703  0.2902
 9947SOL    HW131282   1.299   3.821  10.122 -1.1584  1.2933  0.7786
 9947SOL    HW231283   1.215   3.712  10.185 -1.6725  1.0715 -0.2624
 9948SOL     OW31284   3.148   3.233  10.827  0.4924  0.2634 -0.4379
 9948SOL    HW131285   3.055   3.211  10.814  0.7137  0.1038 -1.9472
 9948SOL    HW231286   3.148   3.300  10.895 -0.4203 -2.5344  2.5755
 9949SOL     OW31287   2.557   5.566  10.649 -0.1146  0.2110 -0.2802
 9949SOL    HW131288   2.597   5.570  10.736 -1.7551 -0.4388  0.5464
 9949SOL    HW231289   2.615   5.619  10.594  1.1280  0.3938  1.1234
 9950SOL     OW31290   2.413   4.812   8.141  0.2264 -0.1841  1.0932
 9950SOL    HW131291   2.344   4.757   8.179  0.5432 -0.8722  0.7090
 9950SOL    HW231292   2.453   4.756   8.074 -0.6197  1.1226 -0.5912
 9951SOL     OW31293   0.720   4.811   7.457  0.5502  0.9906 -0.6099
 9951SOL    HW131294   0.731   4.861   7.376  3.5707  0.0005 -0.9280
 9951SOL    HW231295   0.725   4.720   7.431 -0.0550  0.6053  0.5340
 9952SOL     OW31296   1.472   4.039   9.709  0.6725  0.6658  0.0039
 9952SOL    HW131297   1.531   3.983   9.759  1.7169  0.7704 -1.0748
 9952SOL    HW231298   1.389   4.035   9.757  0.2914 -2.8275 -0.6851
 9953SOL     OW31299   2.305   4.557   9.974  0.0644 -0.4399 -0.2905
 9953SOL    HW131300   2.306   4.542  10.069  1.6748 -1.3260 -0.4167
 9953SOL    HW231301   2.387   4.519   9.943 -0.7323 -0.7437 -2.1326
 9954SOL     OW31302   3.708   4.431   9.959 -0.5567 -0.1874  0.2786
 9954SOL    HW131303   3.760   4.506   9.989  0.4355 -0.7171 -0.0661
 9954SOL    HW231304   3.737   4.416   9.869 -0.1544 -1.4775  0.6060
 9955SOL     OW31305   0.099   5.712  11.104 -0.1436 -0.2330  0.0317
 9955SOL    HW131306   0.192   5.719  11.128 -0.2185  0.4775  0.1422
 9955SOL    HW231307   0.081   5.618  11.104 -0.2932 -0.3561  3.5313
 9956SOL     OW31308   2.390   5.202   9.518 -0.3028 -0.2307  0.6203
 9956SOL    HW131309   2.466   5.242   9.560  0.0534 -0.2443 -0.0088
 9956SOL    HW231310   2.390   5.112   9.550  0.4457 -0.4703 -0.0536
 9957SOL     OW31311   1.267   3.813  10.628  0.0266  0.2234 -0.1522
 9957SOL    HW131312   1.264   3.887  10.568  1.4421  0.4567  0.0269
 9957SOL    HW231313   1.360   3.790  10.633 -0.3929 -1.6601 -0.3248
 9958SOL     OW31314   2.444   4.351   8.947 -0.1929  0.1311  0.0908
 9958SOL    HW131315   2.355   4.358   8.981 -0.1491 -1.5052  0.6060
 9958SOL    HW231316   2.478   4.269   8.983  1.6114  0.8205  0.0868
 9959SOL     OW31317   1.007   4.589  10.384  0.1923 -0.0204 -0.3771
 9959SOL    HW131318   0.996   4.605  10.477  0.7556 -2.4903  0.1878
 9959SOL    HW231319   1.102   4.577  10.373 -0.0263 -1.5038 -0.8964
 9960SOL     OW31320   3.324   5.354   9.328 -0.9443  0.0216 -0.2158
 9960SOL    HW131321   3.264   5.315   9.264  0.3490  0.5332 -1.8021
 9960SOL    HW231322   3.338   5.443   9.296  0.0981  0.1409  0.5320
 9961SOL     OW31323   1.448   4.215  10.530  0.2749 -0.6077  0.0160
 9961SOL    HW131324   1.404   4.290  10.490 -0.3559 -1.2382 -0.4849
 9961SOL    HW231325   1.410   4.139  10.487  2.4570 -1.1633 -1.0312
 9962SOL     OW31326   2.510   5.309   8.780 -0.0875 -0.4230  0.4819
 9962SOL    HW131327   2.482   5.235   8.835 -0.1099 -1.9295 -1.4677
 9962SOL    HW231328   2.430   5.359   8.765 -0.5881 -1.3699 -0.1326
 9963SOL     OW31329   3.202   2.748  11.189 -0.2449 -0.4100  0.2509
 9963SOL    HW131330   3.136   2.805  11.149  1.8050  1.5434 -0.5139
 9963SOL    HW231331   3.231   2.795  11.266  1.1346 -0.6243 -0.1156
 9964SOL     OW31332   1.723   3.625  10.195  0.1163 -0.2109 -0.6114
 9964SOL    HW131333   1.636   3.644  10.231  0.4954  1.0227 -0.3053
 9964SOL    HW231334   1.743   3.537  10.227  0.1400  0.5510  1.6806
 9965SOL     OW31335   1.351   4.194  10.076 -0.1310 -0.2189 -0.4657
 9965SOL    HW131336   1.294   4.237  10.013  0.3573  1.4211  0.1533
 9965SOL    HW231337   1.353   4.102  10.049 -2.1981 -0.1069 -1.1019
 9966SOL     OW31338   2.332   5.443  10.550  0.5041 -0.1682 -0.4100
 9966SOL    HW131339   2.321   5.354  10.581 -0.4496  0.1547  0.2125
 9966SOL    HW231340   2.375   5.488  10.622 -0.4578  0.2494 -0.0796
 9967SOL     OW31341   1.172   4.844   7.908  0.5548  0.3848 -0.5832
 9967SOL    HW131342   1.100   4.871   7.851 -0.0443 -2.8864 -1.6128
 9967SOL    HW231343   1.235   4.916   7.903 -0.3728  1.1416 -3.8482
 9968SOL     OW31344   2.312   5.179  11.271  0.3114 -0.4137  0.2066
 9968SOL    HW131345   2.340   5.118  11.338  0.2977  0.5936  1.1546
 9968SOL    HW231346   2.224   5.207  11.297  0.1716 -0.2532 -0.4009
 9969SOL     OW31347   3.337   5.122   9.078 -0.0558 -0.8359 -0.3235
 9969SOL    HW131348   3.386   5.042   9.094 -1.2485 -1.6524 -0.6814
 9969SOL    HW231349   3.405   5.188   9.060  1.0522 -1.1639  2.2916
 9970SOL     OW31350   2.772   5.223   8.175 -0.1014  0.1479  0.5317
 9970SOL    HW131351   2.838   5.172   8.128 -0.4739 -0.2971  0.4873
 9970SOL    HW231352   2.690   5.177   8.158 -0.4044  0.6344  0.6841
 9971SOL     OW31353   2.738   5.201  11.231  0.3655 -0.0104  0.4042
 9971SOL    HW131354   2.667   5.254  11.268  0.8185 -0.6010  2.2331
 9971SOL    HW231355   2.758   5.242  11.147 -2.0362  0.2392 -0.0977
 9972SOL     OW31356   1.294   4.221  11.041 -0.6643  0.0617  0.0314
 9972SOL    HW131357   1.357   4.231  10.970 -0.7578 -0.8508 -0.1949
 9972SOL    HW231358   1.348   4.199  11.118 -0.7403 -1.7330 -0.3794
 9973SOL     OW31359   1.056   3.780  11.927 -0.1091  0.0138 -0.7149
 9973SOL    HW131360   1.090   3.851  11.873  1.6765  1.5732  2.2103
 9973SOL    HW231361   1.111   3.705  11.905  1.5033  0.9804 -0.1849
 9974SOL     OW31362   3.732   7.063  11.043 -0.3557  0.9080 -0.3390
 9974SOL    HW131363   3.669   7.112  10.989  0.8917  3.4097  0.2874
 9974SOL    HW231364   3.742   7.116  11.122  1.4404 -0.1451  0.2090
 9975SOL     OW31365   2.681   4.808  11.951 -0.2334  0.2123  0.5215
 9975SOL    HW131366   2.716   4.725  11.984  1.4217  0.3945 -0.6818
 9975SOL    HW231367   2.692   4.869  12.024 -0.7006 -0.4072  1.1323
 9976SOL     OW31368   2.508   4.303  10.866  0.1269 -0.0827  0.3397
 9976SOL    HW131369   2.573   4.291  10.797  0.6631  1.3391  0.5495
 9976SOL    HW231370   2.454   4.376  10.835 -1.2551 -1.1039  0.2712
 9977SOL     OW31371   2.172   4.845  12.284 -0.1417  0.2630  0.3401
 9977SOL    HW131372   2.164   4.939  12.272 -1.4509 -0.0903 -2.1140
 9977SOL    HW231373   2.193   4.811  12.197  1.3199 -1.6568  1.3597
 9978SOL     OW31374   3.313   4.273  10.874 -0.1246 -0.3196  0.4690
 9978SOL    HW131375   3.386   4.218  10.901  0.7397  0.9187  0.7594
 9978SOL    HW231376   3.256   4.277  10.951 -0.3480 -1.0422  0.3437
 9979SOL     OW31377   2.719   5.312   0.125 -0.0379  0.6180 -0.2803
 9979SOL    HW131378   2.781   5.255   0.170  0.5271  0.2273 -1.5263
 9979SOL    HW231379   2.749   5.401   0.145  1.2059  0.4317 -1.2282
 9980SOL     OW31380   3.023   4.761  10.703 -0.0079 -0.1519 -0.5171
 9980SOL    HW131381   3.086   4.735  10.770 -1.5944 -0.9899  0.7198
 9980SOL    HW231382   3.043   4.853  10.685  0.0790  0.2870  1.5706
 9981SOL     OW31383   2.731   5.036   0.895  0.2311  0.6621  0.1109
 9981SOL    HW131384   2.663   5.044   0.962 -4.8104 -1.8505 -3.9762
 9981SOL    HW231385   2.747   5.127   0.867 -3.4865  1.3545 -0.3096
 9982SOL     OW31386   2.111   5.435  11.916  0.0287  0.2398 -0.1841
 9982SOL    HW131387   2.199   5.418  11.948 -0.1420  0.3667  0.3658
 9982SOL    HW231388   2.111   5.528  11.893  0.2560  0.0640 -0.8955
 9983SOL     OW31389   2.125   4.708  10.834 -0.3927  0.2734  0.0124
 9983SOL    HW131390   2.185   4.690  10.907 -0.6415 -3.0398 -0.4349
 9983SOL    HW231391   2.179   4.700  10.756 -1.0953 -1.3864 -0.3362
 9984SOL     OW31392   1.353   5.174  11.198  0.1242  0.5263 -0.3710
 9984SOL    HW131393   1.384   5.262  11.176 -0.3625  1.1096  1.0883
 9984SOL    HW231394   1.429   5.131  11.239  0.4572  0.1382 -1.3769
 9985SOL     OW31395   0.845   4.653  10.897  0.5623 -0.4040 -0.6927
 9985SOL    HW131396   0.766   4.631  10.848 -0.2770 -0.5472  0.6563
 9985SOL    HW231397   0.908   4.681  10.831 -1.1987  1.5053 -1.6943
 9986SOL     OW31398   3.928   7.035  11.695 -0.0205  0.0159 -0.3859
 9986SOL    HW131399   3.926   6.990  11.779  1.7906 -0.1630 -0.3925
 9986SOL    HW231400   3.880   7.117  11.710 -0.2177 -0.2814  0.6484
 9987SOL     OW31401   0.055   4.699  10.935 -0.0609  0.2194  0.2544
 9987SOL    HW131402   0.118   4.633  10.906 -0.7726 -2.2180  3.5229
 9987SOL    HW231403   0.106   4.761  10.987  0.1519  0.3162 -0.0726
 9988SOL     OW31404   2.599   5.208  11.848 -0.9693  0.4313  0.0059
 9988SOL    HW131405   2.615   5.302  11.857  0.2261  0.5255 -2.2201
 9988SOL    HW231406   2.619   5.171  11.934  0.9803  1.9511  0.2725
 9989SOL     OW31407   5.057   4.867   9.646 -0.9319  0.2875 -0.5593
 9989SOL    HW131408   4.991   4.835   9.708 -1.4041 -0.5763 -1.4761
 9989SOL    HW231409   5.012   4.936   9.598 -0.6204  0.8382 -0.0713
 9990SOL     OW31410   1.899   5.044  12.227 -0.6698 -0.2073 -0.0752
 9990SOL    HW131411   1.930   5.012  12.311  1.4832 -1.3715 -1.2056
 9990SOL    HW231412   1.863   4.967  12.184  0.0358 -0.0794 -0.9326
 9991SOL     OW31413   2.654   3.185  11.890  0.1768  0.0142  0.6085
 9991SOL    HW131414   2.678   3.163  11.800 -1.1580 -0.4205  0.3474
 9991SOL    HW231415   2.559   3.180  11.892 -0.1233  3.4674  1.1366
 9992SOL     OW31416   1.415   4.306  11.525 -0.0186  0.3468 -0.2992
 9992SOL    HW131417   1.343   4.369  11.522  1.1840  1.7786 -0.3605
 9992SOL    HW231418   1.481   4.346  11.582  0.1236 -1.6334  1.0338
 9993SOL     OW31419   1.966   4.594  11.812  0.4956 -0.2519  0.2215
 9993SOL    HW131420   2.024   4.632  11.878  1.0399 -1.8111  0.6845
 9993SOL    HW231421   1.918   4.525  11.859 -1.3561  0.6271 -0.2834
 9994SOL     OW31422   3.407   5.201  10.584 -0.0509 -0.5864  0.6252
 9994SOL    HW131423   3.326   5.179  10.537  0.0958  2.0623 -1.1046
 9994SOL    HW231424   3.457   5.120  10.585 -1.1928 -1.4067 -1.6276
 9995SOL     OW31425   4.636   5.161  12.251  0.2299  0.1176 -0.1815
 9995SOL    HW131426   4.579   5.119  12.316 -1.5505  1.4125 -0.8322
 9995SOL    HW231427   4.713   5.189  12.301  0.3244 -1.6400  0.7342
 9996SOL     OW31428   1.559   5.373  11.972  0.0031 -0.4894  0.1619
 9996SOL    HW131429   1.599   5.334  12.050  1.9817  1.9182  0.4590
 9996SOL    HW231430   1.623   5.357  11.902 -0.6333 -0.5211 -0.4188
 9997SOL     OW31431   1.839   3.555  11.581 -0.5538 -0.4302 -0.2321
 9997SOL    HW131432   1.914   3.515  11.626  0.2761  1.1444 -0.1347
 9997SOL    HW231433   1.770   3.556  11.647 -0.4351 -1.2262 -0.0857
 9998SOL     OW31434   2.152   4.774  11.967  0.1666 -0.0592 -0.2624
 9998SOL    HW131435   2.157   4.869  11.954 -0.2014 -0.2128 -1.7984
 9998SOL    HW231436   2.218   4.738  11.908 -0.3132 -0.7808 -0.3777
 9999SOL     OW31437   3.148   6.311  11.047  0.2139  0.1695 -0.0310
 9999SOL    HW131438   3.150   6.405  11.025  0.9584  0.1146 -0.2374
 9999SOL    HW231439   3.198   6.305  11.129 -1.7569  0.2461  1.2287
10000SOL     OW31440   3.158   1.543  11.338  0.4788  0.5044  0.4804
10000SOL    HW131441   3.095   1.569  11.271  1.2345  1.9341  0.2996
10000SOL    HW231442   3.184   1.624  11.381  1.7865 -0.1191  0.9320
10001SOL     OW31443   3.989   3.773   0.736 -0.0260 -0.1424  0.3244
10001SOL    HW131444   3.953   3.733   0.816  0.0892 -1.4250 -0.2351
10001SOL    HW231445   4.084   3.765   0.747  0.0976  1.8655  1.1150
10002SOL     OW31446   2.200   5.472  11.050  0.9750  0.0847  0.8110
10002SOL    HW131447   2.151   5.391  11.057 -0.8320  0.9787 -0.6688
10002SOL    HW231448   2.289   5.445  11.029  0.0636 -1.5156 -1.3486
10003SOL     OW31449   2.136   2.741  11.347 -0.0009 -0.7666 -0.2883
10003SOL    HW131450   2.144   2.828  11.308  0.6736 -0.5304  0.3644
10003SOL    HW231451   2.224   2.704  11.342 -0.2342 -1.3366 -0.3596
10004SOL     OW31452   2.329   3.726  11.332 -0.0744  0.2215 -0.0225
10004SOL    HW131453   2.381   3.800  11.303  1.7886 -1.2675 -0.7215
10004SOL    HW231454   2.287   3.692  11.253  0.7959 -0.6955 -0.1202
10005SOL     OW31455   1.625   3.757  11.959 -0.0464  0.0620 -0.2069
10005SOL    HW131456   1.619   3.736  11.866 -0.5237  0.5446 -0.2925
10005SOL    HW231457   1.714   3.734  11.983  0.4077  0.8940 -1.0291
10006SOL     OW31458   3.563   5.096  11.644  0.4783 -0.3817 -0.4401
10006SOL    HW131459   3.634   5.141  11.598 -0.6524 -0.5080 -2.4375
10006SOL    HW231460   3.484   5.139  11.611 -0.4217 -1.0273  0.8415
10007SOL     OW31461   1.353   4.813  10.950 -0.4924  0.1617  0.1748
10007SOL    HW131462   1.405   4.876  10.899  0.5147 -0.2218  0.6907
10007SOL    HW231463   1.402   4.804  11.032 -1.5152 -0.0416  0.7745
10008SOL     OW31464   4.107   5.574  12.065  0.1181 -0.3643  0.1451
10008SOL    HW131465   4.096   5.480  12.054 -0.7966 -0.2207 -0.2661
10008SOL    HW231466   4.164   5.583  12.141  0.0722 -1.2399  0.2954
10009SOL     OW31467   1.076   5.335  11.546  0.1068 -0.1754  0.8403
10009SOL    HW131468   1.110   5.257  11.590  0.3213 -1.2648 -1.1141
10009SOL    HW231469   1.150   5.395  11.542  0.4905 -0.6541  0.7035
10010SOL     OW31470   2.090   5.499   1.727  0.0520 -1.0523  0.3998
10010SOL    HW131471   2.112   5.581   1.683 -0.5172 -1.5807 -0.9128
10010SOL    HW231472   2.130   5.506   1.814  0.4073  0.4047  0.1278
10011SOL     OW31473   3.611   4.133  12.037  0.2468 -0.3080  0.1005
10011SOL    HW131474   3.545   4.174  12.092  1.5337 -1.4198  2.6350
10011SOL    HW231475   3.561   4.077  11.977 -1.1820  0.6148  0.3746
10012SOL     OW31476   2.707   5.375  11.618  0.5816  0.3326  0.2828
10012SOL    HW131477   2.644   5.443  11.593  1.0812 -0.0093 -2.1101
10012SOL    HW231478   2.790   5.422  11.627  0.5723  0.3168  0.4546
10013SOL     OW31479   3.709   3.308   0.851  0.2821 -0.0974  0.0858
10013SOL    HW131480   3.641   3.372   0.833 -0.2875 -0.6080  0.3951
10013SOL    HW231481   3.753   3.341   0.929 -0.2592 -0.2703  0.4706
10014SOL     OW31482   0.607   4.697  11.534  0.0341 -0.4441  0.3589
10014SOL    HW131483   0.593   4.611  11.572  1.2409 -0.5204  0.6847
10014SOL    HW231484   0.702   4.711  11.540  0.1663 -0.0905 -1.8590
10015SOL     OW31485   1.915   5.702   0.127 -0.3238  0.6142 -0.4017
10015SOL    HW131486   1.923   5.617   0.169  0.9429  0.7913 -0.2541
10015SOL    HW231487   1.871   5.757   0.192 -1.0774  0.1126 -0.4708
10016SOL     OW31488   1.956   4.157  10.441 -0.3980  0.1008 -0.3214
10016SOL    HW131489   1.989   4.227  10.497 -1.4110  0.1700  0.2126
10016SOL    HW231490   1.870   4.136  10.478 -0.3823 -0.9697 -0.8752
10017SOL     OW31491   1.771   3.579  11.310 -0.3232  0.8377  0.6110
10017SOL    HW131492   1.693   3.526  11.296 -1.4242  2.1594  1.4668
10017SOL    HW231493   1.784   3.578  11.405  1.0783  0.1608  0.4406
10018SOL     OW31494   1.739   6.126   0.273  0.0678 -0.1207 -0.1617
10018SOL    HW131495   1.783   6.154   0.193  2.0426  1.1100  1.2632
10018SOL    HW231496   1.669   6.068   0.243  1.0759 -0.1366 -2.7262
10019SOL     OW31497   2.189   4.335  11.291  0.6452  0.5139 -0.0761
10019SOL    HW131498   2.219   4.321  11.381 -0.7268  0.5288  0.4083
10019SOL    HW231499   2.266   4.317  11.237  1.0163 -1.2679  0.9855
10020SOL     OW31500   1.212   2.707  11.174  0.7286  0.1439 -0.1357
10020SOL    HW131501   1.144   2.690  11.109  0.5348  1.3736 -0.2733
10020SOL    HW231502   1.165   2.748  11.247  1.1163 -0.2314  0.3283
10021SOL     OW31503   3.529   4.178  11.004 -0.1396 -0.1228  0.7564
10021SOL    HW131504   3.515   4.220  11.089  0.6397  0.5131  0.5880
10021SOL    HW231505   3.620   4.199  10.981 -0.2597 -0.4850 -0.1254
10022SOL     OW31506   2.799   5.193  10.622  0.4504  0.0668 -1.0079
10022SOL    HW131507   2.818   5.160  10.710  1.2777  1.8500 -0.4734
10022SOL    HW231508   2.750   5.122  10.580 -2.5878  0.2314  1.8402
10023SOL     OW31509   2.499   2.958  12.304  0.9157 -0.1641 -0.3885
10023SOL    HW131510   2.475   3.042  12.343  0.8929  1.3195 -3.3389
10023SOL    HW231511   2.430   2.898  12.331  0.8874  0.7344  1.7029
10024SOL     OW31512   4.110   5.220  11.440 -0.0913 -0.1973 -0.2371
10024SOL    HW131513   4.183   5.216  11.502 -1.4463 -0.4240  1.4105
10024SOL    HW231514   4.089   5.314  11.435 -1.1768 -0.3283  1.1719
10025SOL     OW31515   1.527   5.297  11.515  0.2309  0.1808  0.1594
10025SOL    HW131516   1.538   5.225  11.453  0.8757  1.3251 -1.1081
10025SOL    HW231517   1.607   5.348  11.506 -0.5667  1.5154  0.4146
10026SOL     OW31518   3.206   4.370   0.202 -0.2071  0.4055 -0.1724
10026SOL    HW131519   3.226   4.434   0.133  1.2280 -0.7188 -0.8546
10026SOL    HW231520   3.284   4.315   0.208 -1.4223 -1.3796  0.2900
10027SOL     OW31521   2.243   2.923  11.854 -0.0327 -0.3895 -0.2069
10027SOL    HW131522   2.270   3.011  11.879 -0.6337 -0.2616  0.0170
10027SOL    HW231523   2.291   2.905  11.773  0.2987  0.0369 -0.1079
10028SOL     OW31524   2.022   2.392  11.654 -0.1896 -0.7431  0.8258
10028SOL    HW131525   1.996   2.461  11.592 -1.6026 -0.8981  1.1996
10028SOL    HW231526   2.110   2.417  11.681 -0.2826  0.3776  0.1929
10029SOL     OW31527   1.930   4.186  11.578  0.5814 -0.0953 -0.0406
10029SOL    HW131528   2.023   4.203  11.594  0.5610 -1.1760  1.4420
10029SOL    HW231529   1.886   4.217  11.658 -0.3077  0.0896 -0.5819
10030SOL     OW31530   4.141   5.166  10.951  0.3543  0.4993  0.3420
10030SOL    HW131531   4.226   5.165  10.909  0.4713  1.7113  0.5381
10030SOL    HW231532   4.156   5.123  11.036  0.5931  0.0602  0.0837
10031SOL     OW31533   3.722   3.424   0.310  0.0957  0.8288  0.3751
10031SOL    HW131534   3.755   3.496   0.256  3.7015 -1.5430 -0.9335
10031SOL    HW231535   3.770   3.432   0.392  1.5342 -0.7170 -0.2640
10032SOL     OW31536   4.792   4.436   0.341  0.5147  0.0438 -0.1532
10032SOL    HW131537   4.720   4.441   0.278 -0.9157 -0.4678  1.3633
10032SOL    HW231538   4.870   4.421   0.288 -0.8661 -2.2473 -1.7280
10033SOL     OW31539   3.108   5.410  10.329 -0.1284  0.2806 -0.1828
10033SOL    HW131540   3.105   5.460  10.247 -1.8185 -0.3015 -0.5181
10033SOL    HW231541   3.100   5.477  10.397  1.7462  0.8166 -0.4261
10034SOL     OW31542   3.455   4.944  10.601  0.6274  0.0118 -0.2951
10034SOL    HW131543   3.545   4.951  10.572  0.8132  0.2168  0.3019
10034SOL    HW231544   3.459   4.889  10.679  0.1261 -0.6576 -0.7306
10035SOL     OW31545   3.048   4.124   9.698  0.0301 -0.3763 -0.1552
10035SOL    HW131546   3.073   4.138   9.789 -1.0301 -1.2947  0.2927
10035SOL    HW231547   3.125   4.154   9.648  0.7361 -0.1239  1.0307
10036SOL     OW31548   1.883   2.774   9.603 -0.6536  0.1525 -0.7248
10036SOL    HW131549   1.908   2.865   9.591 -0.2600  0.2176  0.4727
10036SOL    HW231550   1.956   2.735   9.651 -2.1728  0.0230  1.6555
10037SOL     OW31551   2.537   5.685  11.794 -0.0988 -0.0633 -0.6665
10037SOL    HW131552   2.585   5.609  11.826  0.9369  0.1768 -1.5571
10037SOL    HW231553   2.531   5.671  11.699 -2.4483 -0.4197 -0.5296
10038SOL     OW31554   3.408   5.289  11.851  0.4888 -0.5577 -0.5652
10038SOL    HW131555   3.489   5.251  11.817 -1.3781 -2.9982 -2.6652
10038SOL    HW231556   3.342   5.221  11.837 -1.9679  1.3377  1.0202
10039SOL     OW31557   2.763   3.318  12.113 -0.1047  0.2774 -0.0909
10039SOL    HW131558   2.744   3.285  12.025  1.1576 -0.5095 -0.0828
10039SOL    HW231559   2.758   3.241  12.169  0.4763  0.5243  0.3096
10040SOL     OW31560   2.540   4.756   1.043 -0.2996 -0.0553  0.4984
10040SOL    HW131561   2.450   4.741   1.074 -0.1147 -1.1119  0.5608
10040SOL    HW231562   2.554   4.687   0.978  0.2812  0.4587  0.0648
10041SOL     OW31563   3.933   3.277   1.255  0.2659 -0.2209  0.6681
10041SOL    HW131564   3.926   3.277   1.351 -1.4095 -1.3958  0.5899
10041SOL    HW231565   4.023   3.248   1.238  0.2108 -1.2510  1.9116
10042SOL     OW31566   0.669   4.575  10.697  0.4579 -0.4186  0.0798
10042SOL    HW131567   0.720   4.637  10.645  1.4929 -0.7392  0.6783
10042SOL    HW231568   0.619   4.525  10.632 -0.0768  0.7412 -0.4320
10043SOL     OW31569   1.892   4.844  10.699  0.3799  0.2155  0.2570
10043SOL    HW131570   1.913   4.931  10.666  0.5892 -0.3769 -1.2453
10043SOL    HW231571   1.976   4.799  10.706  0.2243 -0.0460  0.4952
10044SOL     OW31572   4.474   5.113  12.486  0.3631 -0.0376  0.0681
10044SOL    HW131573   4.388   5.076  12.464  1.1555 -2.2296  0.4291
10044SOL    HW231574   4.465   5.142  12.577 -0.4800  1.4704 -0.4416
10045SOL     OW31575   4.060   6.159   2.204  0.0945  0.1171  0.3967
10045SOL    HW131576   4.092   6.250   2.208  1.3710 -0.1462 -1.9950
10045SOL    HW231577   4.122   6.110   2.258  0.9751  0.3242 -0.3923
10046SOL     OW31578   4.031   4.506  10.840 -0.2789  0.5660  0.1382
10046SOL    HW131579   4.077   4.465  10.913 -1.4116 -2.5535 -0.7646
10046SOL    HW231580   3.940   4.479  10.851 -0.5399  0.3285 -2.1716
10047SOL     OW31581   3.165   3.949  11.796  0.4873 -0.8348 -0.3151
10047SOL    HW131582   3.095   4.014  11.784 -0.5062 -1.6153  0.9543
10047SOL    HW231583   3.213   3.949  11.713 -0.3066  0.5576 -0.8022
10048SOL     OW31584   3.848   3.878   0.497  0.0812 -0.8682 -0.3628
10048SOL    HW131585   3.891   3.875   0.411 -0.9350  0.5620 -0.9606
10048SOL    HW231586   3.901   3.820   0.552  1.3723 -1.0028 -1.6734
10049SOL     OW31587   3.176   4.605  10.882  0.5611  0.0951 -0.0957
10049SOL    HW131588   3.181   4.530  10.942  0.2803 -0.9251 -1.2942
10049SOL    HW231589   3.213   4.572  10.801  2.8484  2.0743  0.0580
10050SOL     OW31590   1.757   3.807   0.636  0.2994  0.1087 -0.0269
10050SOL    HW131591   1.709   3.774   0.712  2.4240 -2.6376  0.3129
10050SOL    HW231592   1.818   3.736   0.615  1.6976  1.9310 -2.6014
10051SOL     OW31593   2.651   3.946  10.016  0.4530  0.4438 -0.0268
10051SOL    HW131594   2.577   3.976  10.068 -0.2367  0.9480 -1.2521
10051SOL    HW231595   2.655   4.007   9.942  1.4293 -0.2178 -0.5497
10052SOL     OW31596   3.900   5.045  11.985 -0.9221 -0.3704  0.4099
10052SOL    HW131597   3.949   5.033  11.903 -2.0029 -1.0138 -0.1568
10052SOL    HW231598   3.818   4.999  11.971 -1.4165  0.1108  1.6114
10053SOL     OW31599   3.749   4.731  11.114  0.4548  0.2048 -0.0573
10053SOL    HW131600   3.728   4.776  11.196  0.3115  0.6152 -0.3158
10053SOL    HW231601   3.696   4.775  11.048 -1.6180 -1.9511  0.0434
10054SOL     OW31602   1.661   2.198  11.402 -0.0222 -0.1228  0.2165
10054SOL    HW131603   1.619   2.275  11.441  1.2769  1.7664 -1.8567
10054SOL    HW231604   1.658   2.214  11.308 -0.0460 -2.8579 -0.3280
10055SOL     OW31605   3.718   3.899  11.540  0.7544 -0.4044  0.0544
10055SOL    HW131606   3.670   3.977  11.567  0.1215 -1.0389  0.8223
10055SOL    HW231607   3.810   3.925  11.543  0.5140  0.5449 -0.4966
10056SOL     OW31608   2.864   6.175   1.060 -0.3510  0.4544  0.0411
10056SOL    HW131609   2.881   6.096   1.111 -1.7267 -0.7762 -1.3086
10056SOL    HW231610   2.943   6.228   1.071  0.7700 -1.2568  0.7142
10057SOL     OW31611   4.320   3.120  11.361  0.7687 -0.0384 -0.6845
10057SOL    HW131612   4.380   3.160  11.299  0.3219  1.1794 -0.3677
10057SOL    HW231613   4.371   3.049  11.401  2.5290  1.8066  0.5818
10058SOL     OW31614   3.442   4.768  10.797  0.2176  0.0402 -0.6204
10058SOL    HW131615   3.430   4.680  10.833 -0.0084  0.2481 -0.1838
10058SOL    HW231616   3.466   4.822  10.872 -1.6154  0.7538 -0.4983
10059SOL     OW31617   2.575   4.604  10.922  0.0841  0.0216 -0.3133
10059SOL    HW131618   2.591   4.532  10.862 -0.9659 -0.6347  0.1653
10059SOL    HW231619   2.649   4.663  10.909  1.1908 -1.3309 -0.4227
10060SOL     OW31620   7.088   4.560  11.099  0.5276  0.1887  0.8380
10060SOL    HW131621   7.113   4.622  11.168  1.3992 -0.9354  1.5787
10060SOL    HW231622   7.026   4.501  11.142  0.5285 -0.0863  0.4605
10061SOL     OW31623   2.169   4.465  12.076  0.4231  0.2431 -0.5557
10061SOL    HW131624   2.229   4.539  12.084  0.1563  0.4973 -0.8623
10061SOL    HW231625   2.111   4.473  12.152  1.4954 -0.6735  0.3848
10062SOL     OW31626   2.401   3.949  12.077  0.0320 -0.1284 -0.5610
10062SOL    HW131627   2.414   3.978  12.168 -2.1953 -1.6312  0.3294
10062SOL    HW231628   2.318   3.989  12.051 -0.5253 -1.5819 -1.0844
10063SOL     OW31629   1.266   5.314  10.089  0.3107  0.1731  0.5601
10063SOL    HW131630   1.318   5.264  10.026 -0.8492 -0.3013 -0.0431
10063SOL    HW231631   1.315   5.307  10.171  3.2691  2.9784 -0.7495
10064SOL     OW31632   1.491   4.356  11.902 -0.2207  0.2596  0.2123
10064SOL    HW131633   1.522   4.375  11.814  0.3683  2.8843  0.8994
10064SOL    HW231634   1.397   4.373  11.899 -0.2771 -0.1032 -0.0256
10065SOL     OW31635   2.216   5.719  11.532 -0.2912  0.0003 -0.3063
10065SOL    HW131636   2.198   5.802  11.487  0.8933  0.4312 -0.0052
10065SOL    HW231637   2.302   5.693  11.501  1.0749  0.8613  2.4612
10066SOL     OW31638   1.079   4.935  11.882 -0.0659 -0.7596  0.0542
10066SOL    HW131639   1.131   4.945  11.963 -0.7606  1.0698  0.3013
10066SOL    HW231640   1.034   4.851  11.894  0.1524 -0.7166  1.4036
10067SOL     OW31641   3.728   5.007  10.581  0.3588  0.2363  0.3665
10067SOL    HW131642   3.690   5.054  10.655  0.7289 -0.0947  0.7780
10067SOL    HW231643   3.812   5.050  10.566  1.2004 -0.9432  1.4552
10068SOL     OW31644   2.882   5.536  12.384 -0.4485 -0.1968 -0.5673
10068SOL    HW131645   2.888   5.616  12.331 -0.1794  0.3501  0.2741
10068SOL    HW231646   2.949   5.547  12.451 -1.9734 -0.0373  0.9934
10069SOL     OW31647   4.949   3.712  10.088 -0.3665  0.5082 -0.1211
10069SOL    HW131648   4.979   3.802  10.094  0.4603  0.2997 -0.8387
10069SOL    HW231649   4.877   3.714  10.025 -0.8553  0.7762  0.4401
10070SOL     OW31650   1.720   5.099  10.446 -0.3490  1.2786  0.0209
10070SOL    HW131651   1.648   5.074  10.389  0.4983  1.2291 -1.0720
10070SOL    HW231652   1.782   5.143  10.388 -0.4108  3.2063  1.3025
10071SOL     OW31653   3.685   7.826   0.120 -0.3768 -0.2665  0.4249
10071SOL    HW131654   3.720   7.891   0.060  1.0856 -0.5793  0.8864
10071SOL    HW231655   3.591   7.843   0.123 -0.1541  1.1784 -0.2059
10072SOL     OW31656   1.573   3.275  10.467  0.5778 -0.0587 -0.0147
10072SOL    HW131657   1.519   3.251  10.392  0.5299  0.1510 -0.0482
10072SOL    HW231658   1.511   3.313  10.529  0.7147  0.3444 -0.1248
10073SOL     OW31659   2.348   5.069  12.301  0.0256  0.1089  0.4006
10073SOL    HW131660   2.354   5.087  12.395  0.1606  0.5981  0.3059
10073SOL    HW231661   2.409   4.997  12.286  0.7774  0.6969  0.5303
10074SOL     OW31662   1.853   4.679  11.231 -0.3540  0.2762  0.9757
10074SOL    HW131663   1.942   4.642  11.228 -0.8336 -0.9233  0.8552
10074SOL    HW231664   1.798   4.611  11.192 -1.3091  1.0657  0.9235
10075SOL     OW31665   4.664   5.396  10.748  0.0649  0.1927 -0.3178
10075SOL    HW131666   4.708   5.421  10.829  0.9437 -0.6417 -0.5263
10075SOL    HW231667   4.712   5.320  10.717  0.0375  0.7887 -1.8794
10076SOL     OW31668   2.901   5.324  12.230 -0.2283 -0.4256  0.1773
10076SOL    HW131669   2.877   5.393  12.292 -0.7269 -1.6391  1.3775
10076SOL    HW231670   2.928   5.372  12.151 -1.3405  1.1228  0.6727
10077SOL     OW31671   1.188   5.808  10.830  0.3090  0.1225 -0.3270
10077SOL    HW131672   1.224   5.721  10.811 -0.5449 -0.2622 -0.2355
10077SOL    HW231673   1.264   5.861  10.852  0.8414 -0.6138 -0.3488
10078SOL     OW31674   4.413   5.004  11.428  0.3931 -0.5546  0.2533
10078SOL    HW131675   4.364   4.958  11.360 -1.2915  1.8951 -0.3558
10078SOL    HW231676   4.405   4.949  11.506 -2.1500 -0.9661 -0.2276
10079SOL     OW31677   2.306   4.476  10.794 -0.2293  0.4091 -0.6064
10079SOL    HW131678   2.328   4.541  10.861  0.0192 -0.0742 -0.2179
10079SOL    HW231679   2.306   4.526  10.713  0.9646  0.6990 -0.4507
10080SOL     OW31680   3.011   4.387  12.205  0.0941 -0.6202 -0.2213
10080SOL    HW131681   3.022   4.458  12.268 -2.1289  0.4430 -0.8978
10080SOL    HW231682   2.981   4.313  12.257 -0.1768 -0.2280  0.1894
10081SOL     OW31683   2.633   5.464  11.953  0.3969 -0.2018  0.1383
10081SOL    HW131684   2.540   5.458  11.975  0.2984 -0.6993 -0.3793
10081SOL    HW231685   2.670   5.519  12.022 -0.3134  0.1745  0.2376
10082SOL     OW31686   3.684   3.095  12.348  0.0261  0.5115  0.1189
10082SOL    HW131687   3.640   3.175  12.319  0.0728  1.5817  2.6534
10082SOL    HW231688   3.767   3.094  12.301 -0.6000  1.1469 -1.0316
10083SOL     OW31689   4.517   3.978  11.831 -0.0147  0.4323  0.0119
10083SOL    HW131690   4.432   4.016  11.810  0.0787  0.0441 -1.1148
10083SOL    HW231691   4.578   4.051  11.824  0.0578  0.2582 -1.4320
10084SOL     OW31692   3.342   3.919  11.565  0.3068 -0.3203  0.4237
10084SOL    HW131693   3.402   3.853  11.599  0.1343 -0.5136  0.3516
10084SOL    HW231694   3.397   3.996  11.550  0.6060 -0.6106  0.0116
10085SOL     OW31695   3.920   4.748  11.736  0.0155  0.4164 -0.3115
10085SOL    HW131696   3.861   4.675  11.756  0.2351  0.0374 -1.0312
10085SOL    HW231697   3.864   4.825  11.744 -0.1623  0.2054  0.7047
10086SOL     OW31698   0.958   4.541  11.117 -0.6753 -0.0772 -0.6540
10086SOL    HW131699   0.911   4.584  11.046  0.4303 -1.3684 -2.2415
10086SOL    HW231700   0.921   4.579  11.197 -1.2371  2.1899 -1.9051
10087SOL     OW31701   3.194   3.980  10.783  0.0053 -0.2587 -0.1788
10087SOL    HW131702   3.257   3.928  10.733  0.9219 -0.5561  1.2299
10087SOL    HW231703   3.152   3.916  10.842 -1.4670 -0.0229 -0.9276
10088SOL     OW31704   5.263   5.659  11.007  0.3768  0.2970  0.5168
10088SOL    HW131705   5.288   5.706  11.087  0.3229  0.9842  0.1443
10088SOL    HW231706   5.173   5.632  11.021  0.1427  1.0017  0.4375
10089SOL     OW31707   3.585   3.789  11.316  0.0096  0.1743 -0.1807
10089SOL    HW131708   3.586   3.810  11.409 -1.3721 -0.4224 -0.0148
10089SOL    HW231709   3.676   3.800  11.288  1.0964 -2.5362  1.8777
10090SOL     OW31710   2.636   3.580  11.863 -0.2053 -0.0078 -0.2178
10090SOL    HW131711   2.671   3.543  11.943  1.3123  0.0682 -0.8210
10090SOL    HW231712   2.574   3.648  11.893 -0.1960 -0.4601  0.8671
10091SOL     OW31713   1.941   5.144  10.315 -0.6269 -0.4225 -0.2416
10091SOL    HW131714   1.983   5.129  10.399 -0.6997 -0.3528 -0.1926
10091SOL    HW231715   2.007   5.121  10.250 -0.4913 -0.2489 -0.1656
10092SOL     OW31716   3.383   2.131   0.322  0.1494 -0.6267  0.2879
10092SOL    HW131717   3.314   2.122   0.388 -0.5279 -0.3930 -0.3680
10092SOL    HW231718   3.383   2.047   0.275 -0.3794 -0.2789 -0.3538
10093SOL     OW31719   2.749   4.933  11.196  0.4369 -0.0055  0.7664
10093SOL    HW131720   2.735   5.026  11.212 -1.3348 -0.3765  1.6838
10093SOL    HW231721   2.828   4.929  11.142  0.8858  1.9725  1.2025
10094SOL     OW31722   3.109   3.780  10.949 -0.3907  0.4716 -0.3385
10094SOL    HW131723   3.044   3.710  10.945 -0.5868  0.6549 -0.4255
10094SOL    HW231724   3.138   3.781  11.040  0.4442 -0.4633 -0.5827
10095SOL     OW31725   1.860   5.081  11.492  0.0223 -0.8890 -0.3436
10095SOL    HW131726   1.910   5.116  11.566 -0.0437  1.1184 -1.1793
10095SOL    HW231727   1.911   5.005  11.463  2.2610  0.6239 -0.6767
10096SOL     OW31728   2.295   2.999  10.986 -0.3302 -0.4555 -0.1393
10096SOL    HW131729   2.359   2.973  10.920  0.2029  0.3441  0.0437
10096SOL    HW231730   2.222   3.035  10.935  1.0894  2.4850 -0.3379
10097SOL     OW31731   3.272   5.476  11.552  0.0782 -0.3956  0.4996
10097SOL    HW131732   3.314   5.504  11.471  1.7800  0.7555  1.7060
10097SOL    HW231733   3.320   5.522  11.621 -0.7314 -2.0187  2.2326
10098SOL     OW31734   4.327   2.578  11.944  0.0549  0.3877 -0.0227
10098SOL    HW131735   4.307   2.517  12.014 -2.7115  0.5284 -0.5612
10098SOL    HW231736   4.282   2.659  11.969  0.5505  1.0137 -1.0822
10099SOL     OW31737   2.106   4.540   9.768 -0.1192 -0.0281  0.2651
10099SOL    HW131738   2.076   4.628   9.744 -0.3643 -0.6438 -1.9304
10099SOL    HW231739   2.182   4.555   9.824  0.0545  1.6014 -0.3327
10100SOL     OW31740   3.664   4.894  11.789  0.5743 -0.5033  0.5661
10100SOL    HW131741   3.633   4.972  11.744  2.0271  1.7350  3.1442
10100SOL    HW231742   3.593   4.871  11.848  0.5485 -0.4736  0.5464
10101SOL     OW31743   3.128   5.006  11.301 -0.2258  0.4093  0.5598
10101SOL    HW131744   3.224   5.014  11.300 -0.2489  0.6508 -0.1766
10101SOL    HW231745   3.098   5.088  11.340 -0.1354  0.3520  0.7516
10102SOL     OW31746   4.540   5.137  10.552 -0.8274  0.7567 -0.6790
10102SOL    HW131747   4.483   5.214  10.544 -1.6155  0.4416  1.3051
10102SOL    HW231748   4.481   5.066  10.579  0.5603  0.6542  2.4913
10103SOL     OW31749   4.117   4.200  11.549  0.4866  0.0001 -0.1848
10103SOL    HW131750   4.029   4.236  11.557  0.3808 -0.3739  0.4026
10103SOL    HW231751   4.162   4.259  11.488  0.2119  0.9094  0.4706
10104SOL     OW31752   1.536   4.518   0.158 -0.2165 -0.2484 -0.3002
10104SOL    HW131753   1.572   4.458   0.092  3.8220  0.3087  1.1157
10104SOL    HW231754   1.541   4.469   0.240 -3.1551 -0.1555  0.0552
10105SOL     OW31755   4.051   4.543  10.024  0.4336  0.4668  0.3447
10105SOL    HW131756   4.064   4.464  10.077 -1.9447 -1.3982 -1.6262
10105SOL    HW231757   3.971   4.582  10.057 -0.4091 -0.0450 -1.0323
10106SOL     OW31758   4.271   6.143  10.907 -0.1072 -0.1121 -0.2333
10106SOL    HW131759   4.223   6.085  10.966 -1.0672 -0.1834 -1.0536
10106SOL    HW231760   4.351   6.165  10.955 -0.1057 -1.4579  0.4170
10107SOL     OW31761   2.814   4.074  12.222  0.7546  0.8056  0.1025
10107SOL    HW131762   2.730   4.089  12.265  0.9984 -0.2513  0.9712
10107SOL    HW231763   2.830   3.980  12.231  1.5695  0.8283 -0.9146
10108SOL     OW31764   3.809   1.716  12.167  0.0424  0.4418  0.7790
10108SOL    HW131765   3.812   1.705  12.072 -0.3004  3.1478  0.3738
10108SOL    HW231766   3.754   1.644  12.198 -0.1573 -0.2709 -1.0995
10109SOL     OW31767   0.622   3.508  11.085  0.6328  0.7059  0.3676
10109SOL    HW131768   0.570   3.588  11.095  0.5753  0.7281 -0.1114
10109SOL    HW231769   0.583   3.462  11.011  1.8533  1.1743 -0.6043
10110SOL     OW31770   5.349   6.826  12.280  0.4192 -0.1279 -0.0740
10110SOL    HW131771   5.410   6.900  12.281  2.0499 -1.3952  0.7245
10110SOL    HW231772   5.304   6.833  12.196 -0.1065  2.2251  0.3420
10111SOL     OW31773   2.825   7.330   0.057  0.0262 -0.6533  0.6446
10111SOL    HW131774   2.888   7.304  -0.011 -0.4936  1.1139 -0.5775
10111SOL    HW231775   2.878   7.371   0.125  0.2733  0.7247 -0.3296
10112SOL     OW31776   4.890   4.430  11.709 -0.4056 -0.0078 -0.5400
10112SOL    HW131777   4.828   4.439  11.781 -0.3418  0.6757 -0.5656
10112SOL    HW231778   4.905   4.519  11.679  0.0711 -0.2303 -0.9766
10113SOL     OW31779   3.283   4.376  11.508 -0.5421  0.3788  0.4516
10113SOL    HW131780   3.350   4.437  11.476 -1.4572  0.6926 -0.9422
10113SOL    HW231781   3.298   4.371  11.602  0.1518  2.0258  0.4545
10114SOL     OW31782   2.963   5.849  12.035 -0.2524 -0.1294 -0.0610
10114SOL    HW131783   3.008   5.807  12.108  0.3491  1.7503  0.6951
10114SOL    HW231784   2.870   5.845  12.058 -0.0713  0.3738  0.7886
10115SOL     OW31785   2.991   3.949  10.164  0.4358 -0.2552 -0.4255
10115SOL    HW131786   3.002   3.939  10.070  0.2331 -0.7943 -0.3963
10115SOL    HW231787   3.063   4.006  10.191  0.6400 -0.3003 -0.8658
10116SOL     OW31788   2.850   3.630  12.466 -0.0798  0.1301  0.1440
10116SOL    HW131789   2.883   3.585  12.388  0.1570  0.8520 -0.1803
10116SOL    HW231790   2.756   3.638  12.451 -0.9985 -3.9564  2.0670
10117SOL     OW31791   2.632   3.919  11.943 -0.0613  0.0193  0.3503
10117SOL    HW131792   2.549   3.921  11.990 -0.1942 -0.5485  0.1464
10117SOL    HW231793   2.696   3.891  12.009  0.1892  1.5640  0.8123
10118SOL     OW31794   7.961   4.705  10.354 -0.0416  0.0469  0.5048
10118SOL    HW131795   8.018   4.655  10.412  0.0531 -0.2810  0.1411
10118SOL    HW231796   7.950   4.648  10.277 -0.0194  0.5424  0.1276
10119SOL     OW31797   1.167   3.948  12.248 -0.5475 -0.1191  0.3231
10119SOL    HW131798   1.249   3.902  12.228 -0.4821 -0.2463  0.8650
10119SOL    HW231799   1.194   4.038  12.267 -0.9030  0.7936 -3.0112
10120SOL     OW31800   2.008   4.260  11.071 -0.2584 -0.4528  0.2642
10120SOL    HW131801   1.935   4.220  11.118  0.3294 -1.5360  0.2731
10120SOL    HW231802   2.079   4.264  11.136 -0.5282  1.3334  0.4999
10121SOL     OW31803   1.866   6.038   1.712 -0.1162 -0.4722 -0.0356
10121SOL    HW131804   1.871   6.100   1.639 -2.0147  0.2974  0.4288
10121SOL    HW231805   1.936   6.066   1.771  0.1965  0.1132 -0.6633
10122SOL     OW31806   2.721   6.186   0.820  0.3571  0.3218 -0.6689
10122SOL    HW131807   2.787   6.203   0.886 -0.6629 -0.3098  0.5550
10122SOL    HW231808   2.744   6.101   0.783 -0.7171 -0.7580  1.0142
10123SOL     OW31809   2.821   0.507  12.171 -0.4139  0.9173  0.2477
10123SOL    HW131810   2.807   0.533  12.080  0.5901 -1.1237 -0.5547
10123SOL    HW231811   2.886   0.437  12.166 -0.7029  0.4075  2.5044
10124SOL     OW31812   2.670   6.828   0.564  0.0578  0.0472 -0.1436
10124SOL    HW131813   2.727   6.900   0.590  0.6283 -0.1517 -0.8057
10124SOL    HW231814   2.723   6.775   0.504 -0.9718  0.1366 -1.1937
10125SOL     OW31815   3.669   5.169  12.032  0.3184 -0.4671  0.0427
10125SOL    HW131816   3.654   5.210  11.947  2.0774  3.0439  1.2437
10125SOL    HW231817   3.763   5.154  12.035  0.1548 -1.3743  1.0545
10126SOL     OW31818   5.584   6.395  11.148  0.2068  0.5614 -1.0464
10126SOL    HW131819   5.652   6.421  11.210 -0.2219 -0.1069 -0.2918
10126SOL    HW231820   5.616   6.314  11.109  0.3229  0.8053 -1.4729
10127SOL     OW31821   2.503   7.148   0.815 -0.1158 -0.4308  0.0567
10127SOL    HW131822   2.479   7.112   0.900  0.4469  1.3371  1.0293
10127SOL    HW231823   2.598   7.140   0.811  0.0782  1.1338  0.4706
10128SOL     OW31824   2.616   6.730   2.866 -0.0315 -0.1514  0.0540
10128SOL    HW131825   2.588   6.743   2.957 -0.0698  1.2558 -0.1347
10128SOL    HW231826   2.540   6.757   2.814  0.0583 -0.7662 -0.4103
10129SOL     OW31827   2.767   5.648   1.494 -0.5208  0.1637 -0.2787
10129SOL    HW131828   2.818   5.666   1.572 -1.4502  0.9297  0.1741
10129SOL    HW231829   2.785   5.556   1.473  1.5251  0.5801 -0.5234
10130SOL     OW31830   2.613   6.536   1.329  0.1332 -0.3591  0.1253
10130SOL    HW131831   2.685   6.578   1.375  1.0314 -1.6286 -0.0651
10130SOL    HW231832   2.562   6.609   1.292  1.3746  0.5660  0.1662
10131SOL     OW31833   2.780   6.495   0.418 -0.5933  0.0659 -0.3439
10131SOL    HW131834   2.828   6.558   0.471 -0.9172 -0.2389  0.3252
10131SOL    HW231835   2.809   6.512   0.328  1.3232 -0.5683  0.0839
10132SOL     OW31836   3.416   7.143   1.692 -0.2336 -0.2334  0.0625
10132SOL    HW131837   3.455   7.231   1.701  0.3579 -0.5060  0.2012
10132SOL    HW231838   3.446   7.112   1.607 -1.5709  0.2378 -0.6125
10133SOL     OW31839   1.067   6.536   1.727 -0.2821 -0.3017 -0.3083
10133SOL    HW131840   1.145   6.490   1.696  0.6470  1.5719 -0.9280
10133SOL    HW231841   1.045   6.596   1.656 -1.1883  0.4953  0.6243
10134SOL     OW31842   3.480   6.905   0.465  0.0711 -0.0533  0.5706
10134SOL    HW131843   3.449   6.819   0.436  0.0421  0.3920 -0.8068
10134SOL    HW231844   3.426   6.968   0.417  0.9975  0.7333  0.5166
10135SOL     OW31845   0.047   7.252   0.139 -0.0561  0.0675  0.1013
10135SOL    HW131846   0.036   7.344   0.165 -1.0799 -0.0751  0.2261
10135SOL    HW231847   0.109   7.217   0.203 -1.5663  0.0512  1.6393
10136SOL     OW31848   1.664   6.946   1.777 -0.1601  0.6739  0.2647
10136SOL    HW131849   1.696   6.859   1.755  0.6132  0.8168  0.7750
10136SOL    HW231850   1.674   6.996   1.696 -0.1864  0.4065  0.0956
10137SOL     OW31851   3.112   0.169   0.059  0.4843  0.1232 -0.4417
10137SOL    HW131852   3.160   0.151  -0.021 -0.3852 -2.7184 -0.4425
10137SOL    HW231853   3.177   0.158   0.129  0.4035 -1.2641 -0.5704
10138SOL     OW31854   0.581   5.649   1.398 -0.0516  0.4541 -0.3088
10138SOL    HW131855   0.520   5.684   1.334  1.4574  1.5082 -1.2449
10138SOL    HW231856   0.654   5.711   1.398  0.5805 -0.2105  1.5052
10139SOL     OW31857   1.988   7.805   0.532 -0.4023 -0.0876 -0.1811
10139SOL    HW131858   1.947   7.733   0.484  1.1249 -1.7514  0.8676
10139SOL    HW231859   2.073   7.770   0.559  0.6579  2.3601 -0.1454
10140SOL     OW31860   3.294   5.659   3.733  0.2233  0.1833  0.1712
10140SOL    HW131861   3.323   5.666   3.642 -0.3882  0.9345  0.0228
10140SOL    HW231862   3.350   5.720   3.781  0.3356  0.0230  0.2424
10141SOL     OW31863   3.022   7.412   1.167  0.3429  0.5221  0.1566
10141SOL    HW131864   2.938   7.444   1.200  0.2462  0.4369 -0.0095
10141SOL    HW231865   3.063   7.490   1.129 -0.3392  0.2584 -1.1956
10142SOL     OW31866   3.345   0.411  12.182  0.8837 -0.0554 -0.3265
10142SOL    HW131867   3.291   0.472  12.231  2.4816  1.3269 -0.2056
10142SOL    HW231868   3.353   0.449  12.095  2.0723  0.0378 -0.1892
10143SOL     OW31869   2.156   7.416  12.073  0.3648  0.1964 -0.3558
10143SOL    HW131870   2.211   7.489  12.045  1.5268 -0.2893  0.5415
10143SOL    HW231871   2.195   7.388  12.156 -0.6852 -0.7773 -0.1757
10144SOL     OW31872   2.655   5.982  12.442 -0.1304  0.0596 -0.2759
10144SOL    HW131873   2.606   6.029  12.375  0.9085 -0.7545 -1.6718
10144SOL    HW231874   2.689   5.905  12.397 -0.4383 -1.2013  1.5188
10145SOL     OW31875   3.527   6.703   0.826 -0.5652 -0.6975 -0.0794
10145SOL    HW131876   3.613   6.665   0.842 -0.5726 -1.2721 -1.3015
10145SOL    HW231877   3.545   6.795   0.804 -0.2413 -0.8758 -0.5637
10146SOL     OW31878   2.321   6.137   2.939  0.4931 -0.0752  0.2532
10146SOL    HW131879   2.400   6.084   2.928  1.1986  0.8151  0.8081
10146SOL    HW231880   2.313   6.148   3.034 -1.2547 -1.5132  0.3219
10147SOL     OW31881   1.203   7.278   0.873 -0.0073 -0.1162  0.0241
10147SOL    HW131882   1.165   7.272   0.960  0.4939 -3.7107  0.1352
10147SOL    HW231883   1.153   7.216   0.820 -0.6755  2.3879 -2.4961
10148SOL     OW31884   2.106   5.847   0.759 -0.0330  0.3740  0.7536
10148SOL    HW131885   2.201   5.850   0.760 -0.0221 -0.0018  1.1039
10148SOL    HW231886   2.085   5.769   0.708 -0.1393  0.0709  1.2532
10149SOL     OW31887   3.258   7.093   0.712 -0.1333 -0.4856 -0.0533
10149SOL    HW131888   3.187   7.075   0.774 -0.7058 -1.6637 -1.0159
10149SOL    HW231889   3.288   7.006   0.685  1.2110  0.0054 -0.1937
10150SOL     OW31890   0.884   5.664   2.949 -0.0412  0.1751 -0.4490
10150SOL    HW131891   0.969   5.681   2.990  0.3375 -1.7990 -0.3313
10150SOL    HW231892   0.878   5.728   2.878  1.3967  0.5483 -0.2562
10151SOL     OW31893   3.268   4.786   0.428  0.1489  0.4381  0.6720
10151SOL    HW131894   3.313   4.855   0.476  0.4474  1.2579 -0.7138
10151SOL    HW231895   3.312   4.784   0.342 -3.0383  2.0230 -1.1895
10152SOL     OW31896   2.275   7.448   0.478  0.0692  0.1437  0.3091
10152SOL    HW131897   2.202   7.392   0.451 -0.9199  1.4670  0.1363
10152SOL    HW231898   2.302   7.412   0.563 -0.2312 -0.8637 -0.0065
10153SOL     OW31899   2.897   6.247   1.401 -0.3697  0.4801  0.1121
10153SOL    HW131900   2.807   6.244   1.370  0.2331  0.3730 -1.7637
10153SOL    HW231901   2.933   6.327   1.363  0.0914  1.0082  1.5932
10154SOL     OW31902   3.946   0.125   1.542 -0.3578 -0.4417 -0.4316
10154SOL    HW131903   4.013   0.175   1.588 -0.7872 -2.0789  2.1726
10154SOL    HW231904   3.864   0.169   1.565 -0.6133 -1.5053  0.7970
10155SOL     OW31905   4.056   7.309   0.497 -0.4678  0.5499  0.3149
10155SOL    HW131906   3.980   7.264   0.534 -0.0777  0.2468  0.7474
10155SOL    HW231907   4.071   7.264   0.414  0.9455 -1.2680  1.4906
10156SOL     OW31908   0.997   7.087  12.136  0.6754 -0.0401  0.1118
10156SOL    HW131909   0.950   7.087  12.219  0.8571 -0.6186  0.2178
10156SOL    HW231910   0.930   7.074  12.069  0.2175  2.5309 -0.0347
10157SOL     OW31911   3.742   7.205  11.926 -0.7840  0.2884 -0.0403
10157SOL    HW131912   3.656   7.179  11.960 -0.8779  0.8822  0.2001
10157SOL    HW231913   3.791   7.123  11.918 -1.2266 -0.0079  0.2385
10158SOL     OW31914   2.329   6.100   1.549  0.4168 -0.2894 -0.3042
10158SOL    HW131915   2.390   6.170   1.526  0.0257 -0.6356 -2.7035
10158SOL    HW231916   2.251   6.145   1.580  1.0244  0.2330  0.5060
10159SOL     OW31917   3.743   6.789   2.495  0.2496  0.2354  0.1705
10159SOL    HW131918   3.771   6.721   2.557  2.0757 -0.0072 -0.8405
10159SOL    HW231919   3.824   6.821   2.457 -0.7502  1.2663 -1.1829
10160SOL     OW31920   3.698   7.595   1.950  0.5595 -0.4780  0.5231
10160SOL    HW131921   3.763   7.614   2.018  1.6512 -0.8538 -0.3762
10160SOL    HW231922   3.698   7.499   1.943 -2.6667 -0.8179  2.8967
10161SOL     OW31923   2.860   6.263   2.737  0.2744  0.1178 -0.2453
10161SOL    HW131924   2.795   6.331   2.722 -0.9657 -0.9207  0.3044
10161SOL    HW231925   2.816   6.182   2.715  2.1837 -0.4692 -2.3615
10162SOL     OW31926   2.790   7.060   0.671  0.6065  0.0613 -0.8902
10162SOL    HW131927   2.881   7.060   0.642  1.8391  1.5961  2.5047
10162SOL    HW231928   2.748   7.127   0.618  2.2596  1.4705 -0.5059
10163SOL     OW31929   2.125   6.306  12.336  0.6125 -0.0801 -0.1457
10163SOL    HW131930   2.127   6.401  12.323  1.1085 -0.3301 -2.1913
10163SOL    HW231931   2.050   6.276  12.285  1.6060 -0.9687 -1.1285
10164SOL     OW31932   2.598   0.880   1.928 -0.0130  0.3932 -0.1715
10164SOL    HW131933   2.647   0.801   1.950  3.1448  1.6405 -1.9989
10164SOL    HW231934   2.614   0.939   2.002  2.4676  1.2013 -1.2358
10165SOL     OW31935   2.455   4.599   0.191 -0.0627 -0.0029 -0.4087
10165SOL    HW131936   2.438   4.609   0.285 -0.1832  0.7882 -0.5093
10165SOL    HW231937   2.452   4.688   0.156  0.0951 -0.2779 -1.1478
10166SOL     OW31938   3.968   5.644   1.528 -0.1879  0.3967  0.6700
10166SOL    HW131939   3.969   5.715   1.465  1.4928 -0.2431 -0.0921
10166SOL    HW231940   3.888   5.594   1.507  0.5585 -0.0616 -1.2945
10167SOL     OW31941   3.170   6.722   0.603 -0.3397  0.6796 -0.1278
10167SOL    HW131942   3.201   6.751   0.689  0.6837  0.0937 -0.2874
10167SOL    HW231943   3.236   6.661   0.572 -1.5123 -0.3850 -0.6370
10168SOL     OW31944   2.175   5.497   2.917  0.0337 -1.2945  0.0920
10168SOL    HW131945   2.268   5.477   2.905  0.1589 -1.3539  1.0458
10168SOL    HW231946   2.154   5.558   2.847  1.2024 -0.0315  0.7885
10169SOL     OW31947   3.156   7.646   1.521  0.5005 -0.5178  0.1194
10169SOL    HW131948   3.100   7.722   1.535  0.8742 -0.3392  0.7033
10169SOL    HW231949   3.105   7.571   1.553  0.0411 -0.5524 -0.6698
10170SOL     OW31950   2.986   0.363   1.255  0.3683  0.2857 -0.3946
10170SOL    HW131951   2.963   0.445   1.298  0.6237  0.5420 -0.7413
10170SOL    HW231952   2.972   0.296   1.322  1.6568  0.7753  0.4052
10171SOL     OW31953   3.723   6.459   0.233  0.1340 -0.1397  0.3243
10171SOL    HW131954   3.751   6.409   0.156 -0.0514 -1.9347  1.3761
10171SOL    HW231955   3.645   6.506   0.204  0.5139 -0.1655 -0.7944
10172SOL     OW31956   2.040   6.438   0.775 -0.3667  0.0685  0.5455
10172SOL    HW131957   2.119   6.480   0.810  0.6161 -0.5037 -0.9106
10172SOL    HW231958   1.977   6.509   0.768 -0.1119  0.4811  2.0194
10173SOL     OW31959   2.003   1.242  11.908 -0.3059 -0.0385 -0.9368
10173SOL    HW131960   1.923   1.283  11.875 -0.3671  1.5455  1.0497
10173SOL    HW231961   2.072   1.273  11.848 -0.6531  1.5025 -0.5815
10174SOL     OW31962   5.078   5.916   2.679  0.2106 -0.2792 -0.5712
10174SOL    HW131963   5.025   5.975   2.626  1.4329  0.8217 -0.6314
10174SOL    HW231964   5.046   5.828   2.657 -0.6872  0.2756 -1.5706
10175SOL     OW31965   2.163   7.623   1.805 -0.2189  0.0683  0.3339
10175SOL    HW131966   2.165   7.530   1.782  2.4725  0.0525  0.3308
10175SOL    HW231967   2.230   7.663   1.750 -1.4800  2.1034  0.1615
10176SOL     OW31968   2.694   7.269   0.534  0.2216  0.4030 -0.0288
10176SOL    HW131969   2.777   7.265   0.486 -1.0046  0.5970 -2.3411
10176SOL    HW231970   2.657   7.354   0.510 -1.2084 -0.2233 -0.1155
10177SOL     OW31971   1.860   5.007   2.777 -0.9866  0.1424  0.1376
10177SOL    HW131972   1.919   4.950   2.727 -1.6153 -0.2078 -0.2155
10177SOL    HW231973   1.914   5.084   2.798  0.0926 -0.8710  1.2278
10178SOL     OW31974   3.717   6.895   0.597 -0.2612 -0.3232  0.1018
10178SOL    HW131975   3.636   6.897   0.547 -1.0714  0.7265  1.3826
10178SOL    HW231976   3.761   6.815   0.569 -1.4456 -0.5876 -1.0689
10179SOL     OW31977   4.151   0.269  11.247 -0.3941  0.3355  0.2392
10179SOL    HW131978   4.156   0.174  11.236 -0.7812  0.4172 -0.8237
10179SOL    HW231979   4.242   0.298  11.245 -0.2842  0.0043  0.3488
10180SOL     OW31980   1.298   6.028   0.859 -0.1044  0.6904  0.0300
10180SOL    HW131981   1.366   6.095   0.851 -0.9382  1.7537  1.4925
10180SOL    HW231982   1.224   6.063   0.810  0.4575 -0.6626 -1.9342
10181SOL     OW31983   7.821   6.177   0.860 -0.2144  0.5823  0.1529
10181SOL    HW131984   7.863   6.207   0.941 -0.8742  0.8208  0.4113
10181SOL    HW231985   7.893   6.144   0.807  0.2477  0.5660  0.7767
10182SOL     OW31986   2.524   0.672  11.932 -0.4764 -0.1656 -0.6729
10182SOL    HW131987   2.514   0.677  12.027  0.5299  2.5796 -0.6254
10182SOL    HW231988   2.444   0.712  11.898 -1.1230 -1.7198 -1.0429
10183SOL     OW31989   1.285   4.922  12.167  0.0781  0.1125  0.3294
10183SOL    HW131990   1.348   4.951  12.233  0.9464 -1.6630  0.3414
10183SOL    HW231991   1.208   4.896  12.217 -0.1225  0.8968  0.4383
10184SOL     OW31992   1.891   3.477   1.912 -0.1185  0.4284 -0.1334
10184SOL    HW131993   1.854   3.471   2.000 -1.5220 -0.2272 -0.7415
10184SOL    HW231994   1.815   3.483   1.854  0.7681  0.3640 -1.3414
10185SOL     OW31995   2.475   6.057   1.979 -0.0386  0.3146 -0.0625
10185SOL    HW131996   2.412   5.995   2.015  1.2382 -0.2812  1.2351
10185SOL    HW231997   2.423   6.134   1.956 -1.4222 -0.6503 -0.3018
10186SOL     OW31998   2.774   6.185   1.907 -0.0580  0.3378 -0.1214
10186SOL    HW131999   2.692   6.173   1.953  0.3259  1.9470  1.0809
10186SOL    HW232000   2.774   6.118   1.839 -1.4152 -1.0048  1.1447
10187SOL     OW32001   2.910   6.640   0.600  0.0056 -0.1197  0.4552
10187SOL    HW132002   2.879   6.654   0.689 -0.7654  1.7716 -0.0521
10187SOL    HW232003   2.997   6.680   0.598  0.8487 -1.8493  0.8186
10188SOL     OW32004   4.340   6.111   2.856 -0.7757 -0.1867 -0.1581
10188SOL    HW132005   4.347   6.206   2.842 -0.8631 -0.1011  0.3486
10188SOL    HW232006   4.426   6.086   2.889 -0.8176 -0.2463 -0.0938
10189SOL     OW32007   2.810   5.670   0.342 -0.1926 -0.2551 -0.5311
10189SOL    HW132008   2.772   5.673   0.254 -2.3274 -1.1345  0.2910
10189SOL    HW232009   2.813   5.761   0.370 -0.5343 -0.0618 -1.1029
10190SOL     OW32010   3.295   7.320   0.991  0.5288  0.0437 -0.3572
10190SOL    HW132011   3.347   7.277   1.059  2.0897  0.6859 -1.1016
10190SOL    HW232012   3.233   7.375   1.039  0.0574 -1.2569  0.5630
10191SOL     OW32013   2.696   5.488   0.496 -0.0759  0.3437  0.2483
10191SOL    HW132014   2.748   5.409   0.484 -1.2283 -0.3055 -0.8072
10191SOL    HW232015   2.732   5.550   0.432  0.9317  0.7566  1.1865
10192SOL     OW32016   3.751   6.074   0.058  0.1568 -0.5403 -0.2289
10192SOL    HW132017   3.722   5.987   0.029 -0.4521 -0.8545  1.2496
10192SOL    HW232018   3.698   6.135   0.007  0.4874 -1.0059 -1.1765
10193SOL     OW32019   1.484   6.502   0.571  0.0633 -0.3230 -0.0010
10193SOL    HW132020   1.499   6.448   0.493 -0.4490  0.3627 -0.5855
10193SOL    HW232021   1.553   6.567   0.569 -0.8914  0.6928 -0.7853
10194SOL     OW32022   2.669   7.781  12.249 -0.2507 -0.2180 -0.4564
10194SOL    HW132023   2.613   7.734  12.187 -2.0734  1.1813  0.0480
10194SOL    HW232024   2.714   7.712  12.298 -0.2706 -1.3695 -1.9806
10195SOL     OW32025   4.873   4.673   2.541  0.3539  0.3076  0.2421
10195SOL    HW132026   4.796   4.729   2.527  0.0721 -0.2771 -0.6539
10195SOL    HW232027   4.938   4.731   2.580 -0.9940  0.5018  2.4015
10196SOL     OW32028   4.934   7.617   0.745  0.0801  0.3210  0.3914
10196SOL    HW132029   4.855   7.667   0.728 -0.9560 -1.0552  0.9250
10196SOL    HW232030   4.950   7.628   0.839  1.5291  1.9413  0.0071
10197SOL     OW32031   3.424   7.053   3.132 -0.2565 -0.0710 -0.1844
10197SOL    HW132032   3.511   7.047   3.092  0.3539  0.4894  1.0161
10197SOL    HW232033   3.365   7.071   3.059  0.8008  0.7307 -0.8636
10198SOL     OW32034   4.323   7.691   1.714 -0.0444  1.0077  0.4921
10198SOL    HW132035   4.243   7.657   1.674 -0.6694  1.6516  1.1442
10198SOL    HW232036   4.299   7.780   1.741  0.5531  0.8270  1.6682
10199SOL     OW32037   3.658   4.563   1.557 -0.0610  0.0338 -0.0137
10199SOL    HW132038   3.674   4.654   1.533  1.8656 -0.0206  0.7940
10199SOL    HW232039   3.700   4.512   1.488 -0.9236 -0.2519 -0.3374
10200SOL     OW32040   2.841   6.720  12.282 -0.4025  0.2311 -0.2828
10200SOL    HW132041   2.765   6.671  12.249  0.3344  0.3238 -2.2270
10200SOL    HW232042   2.868   6.775  12.209  0.3053  1.7483  1.0505
10201SOL     OW32043   1.430   6.998  11.952  0.3376  0.4530  0.0824
10201SOL    HW132044   1.444   6.920  12.006  0.4025 -0.6465 -1.4603
10201SOL    HW232045   1.344   6.986  11.913  1.1684  0.1199 -1.7614
10202SOL     OW32046   1.524   7.785  11.471  0.3000  0.5324  0.7581
10202SOL    HW132047   1.604   7.755  11.515  0.5344  0.5315  0.3385
10202SOL    HW232048   1.471   7.705  11.463  0.4828  0.4282  0.5670
10203SOL     OW32049   3.328   5.641   2.122 -0.0842  0.1150  0.0820
10203SOL    HW132050   3.390   5.607   2.058  2.1627  1.6472  1.2946
10203SOL    HW232051   3.314   5.569   2.183  0.2507 -0.3368 -0.3687
10204SOL     OW32052   3.679   7.432   0.416 -0.1742 -0.1508  0.3558
10204SOL    HW132053   3.688   7.496   0.486 -1.8034 -1.5503  1.9095
10204SOL    HW232054   3.673   7.485   0.336  1.3467  1.4859  1.2554
10205SOL     OW32055   3.167   5.924   2.499  0.0493 -0.3200 -0.6504
10205SOL    HW132056   3.213   5.999   2.461 -0.2623 -0.6958 -1.8155
10205SOL    HW232057   3.211   5.848   2.461 -1.7813 -0.6930 -2.1901
10206SOL     OW32058   2.719   6.733   1.851 -0.3923  0.7238 -0.0591
10206SOL    HW132059   2.705   6.645   1.884 -0.2781 -0.3297 -2.5943
10206SOL    HW232060   2.634   6.760   1.816 -0.1148  1.0501 -0.5040
10207SOL     OW32061   1.270   1.206  12.492  0.1799 -0.1782 -0.4350
10207SOL    HW132062   1.258   1.137  12.558  1.0995  0.8563  0.8708
10207SOL    HW232063   1.365   1.213  12.482  0.0574 -0.5348 -2.1573
10208SOL     OW32064   4.226   5.872   0.461  0.4555 -0.0701  0.6200
10208SOL    HW132065   4.245   5.817   0.537 -2.4324 -3.1885 -0.6593
10208SOL    HW232066   4.153   5.927   0.488  0.3699 -0.1549  0.5647
10209SOL     OW32067   3.115   5.461   0.959 -0.1814  0.2874 -0.4650
10209SOL    HW132068   3.051   5.462   0.887  0.0422  0.5634 -0.6607
10209SOL    HW232069   3.083   5.528   1.020  0.8076  1.6077 -1.3473
10210SOL     OW32070   4.072   5.339   1.175  0.0566 -0.2161  0.2800
10210SOL    HW132071   4.012   5.301   1.111  2.1056  0.6441 -2.3254
10210SOL    HW232072   4.041   5.429   1.185  0.0811 -0.1809  0.0443
10211SOL     OW32073   3.867   7.726   1.624  0.0589 -0.3209  0.4381
10211SOL    HW132074   3.886   7.787   1.695  0.2880 -0.9428  0.9263
10211SOL    HW232075   3.842   7.781   1.550 -2.1391  0.2842  1.5575
10212SOL     OW32076   2.013   7.482   0.705  0.4926  0.3695  0.4502
10212SOL    HW132077   2.056   7.528   0.633  1.3833 -1.4308 -0.2459
10212SOL    HW232078   2.006   7.546   0.775 -0.0901  2.0908 -1.1054
10213SOL     OW32079   3.001   7.170   2.235 -0.1258  0.1070  0.5126
10213SOL    HW132080   3.025   7.257   2.268  0.2014  0.2313 -0.0419
10213SOL    HW232081   3.018   7.174   2.141 -2.4811  0.2408  0.0430
10214SOL     OW32082   2.426   6.728   0.610  0.1274  0.5332  0.2240
10214SOL    HW132083   2.505   6.776   0.585  0.8892 -1.9508 -2.8005
10214SOL    HW232084   2.449   6.636   0.596 -4.0960 -0.2749 -3.9353
10215SOL     OW32085   2.734   5.348   2.393 -0.4747  0.3572 -0.1470
10215SOL    HW132086   2.714   5.421   2.335  1.0068  1.9442  1.2128
10215SOL    HW232087   2.745   5.387   2.480 -0.0827 -1.5422  0.7367
10216SOL     OW32088   3.178   6.149   1.388  0.0424  0.0527 -0.2522
10216SOL    HW132089   3.211   6.110   1.307  0.6538 -0.6716  0.3329
10216SOL    HW232090   3.083   6.151   1.376  0.0990 -0.4033 -0.8307
10217SOL     OW32091   3.950   7.587   3.789 -0.4026  0.1351  0.0635
10217SOL    HW132092   4.013   7.658   3.793  0.5150 -0.6851  0.5405
10217SOL    HW232093   3.961   7.540   3.872  0.0190 -1.3988 -0.8108
10218SOL     OW32094   2.962   6.739   2.357  0.3823 -0.0224 -0.4382
10218SOL    HW132095   2.950   6.722   2.450 -0.6639 -0.5467 -0.6471
10218SOL    HW232096   2.939   6.832   2.347 -2.7827 -0.7206 -0.6334
10219SOL     OW32097   4.065   4.184   1.282  0.2866  0.1448 -0.1665
10219SOL    HW132098   4.116   4.247   1.230  0.7188 -0.1821 -0.1417
10219SOL    HW232099   4.131   4.136   1.332  0.0188 -0.8722 -0.7797
10220SOL     OW32100   3.068   6.404   3.413  0.6064 -0.1817  0.4168
10220SOL    HW132101   3.126   6.472   3.448  1.5283  0.3919 -2.0373
10220SOL    HW232102   3.127   6.340   3.375 -0.3236 -0.1841 -1.0838
10221SOL     OW32103   0.399   5.860   0.731  0.2287  0.2400  0.1846
10221SOL    HW132104   0.357   5.785   0.773  1.1785 -0.8954 -0.8272
10221SOL    HW232105   0.418   5.830   0.642  3.5811  0.4710  0.6883
10222SOL     OW32106   1.760   5.903   0.820  0.1239 -0.0444 -0.1341
10222SOL    HW132107   1.687   5.852   0.855 -0.1173  0.8464  0.6923
10222SOL    HW232108   1.792   5.851   0.746 -0.8006 -0.8573  0.0171
10223SOL     OW32109   3.441   6.213   1.423 -0.9307 -0.0598 -0.2409
10223SOL    HW132110   3.351   6.179   1.422 -1.6350  1.5295  1.8881
10223SOL    HW232111   3.460   6.229   1.515  0.4190  2.4347 -0.8568
10224SOL     OW32112   3.140   5.698  11.011 -0.1914  0.3046 -0.3706
10224SOL    HW132113   3.100   5.784  10.997  0.5823  0.6269 -0.6640
10224SOL    HW232114   3.234   5.716  11.013 -0.0340 -0.5149 -0.2739
10225SOL     OW32115   3.855   7.317   0.144 -0.4951 -0.6927  0.1136
10225SOL    HW132116   3.865   7.265   0.224 -0.5801 -0.9423 -0.0353
10225SOL    HW232117   3.765   7.349   0.147 -1.6508 -3.4054 -1.4534
10226SOL     OW32118   2.817   7.563   0.274 -0.3830  0.1734  0.6620
10226SOL    HW132119   2.765   7.493   0.312 -0.5954  0.6903  1.3320
10226SOL    HW232120   2.753   7.628   0.244 -0.4809 -1.5797 -3.5345
10227SOL     OW32121   0.679   7.669   1.234 -0.0325  0.0639 -0.4528
10227SOL    HW132122   0.726   7.638   1.311 -2.0946 -0.1408  0.8081
10227SOL    HW232123   0.635   7.590   1.200 -0.7590  0.5211 -0.6067
10228SOL     OW32124   3.586   6.681   2.903 -0.4379 -0.2074 -0.4209
10228SOL    HW132125   3.564   6.744   2.834 -0.1146  1.3797  0.8476
10228SOL    HW232126   3.501   6.654   2.939 -0.6645 -1.7802 -1.9879
10229SOL     OW32127   1.658   7.803   2.700  0.3691  0.0965 -0.2644
10229SOL    HW132128   1.569   7.828   2.678  0.4685  0.6288 -0.0734
10229SOL    HW232129   1.654   7.779   2.793  0.6541  1.2691  0.0665
10230SOL     OW32130   3.586   7.250   2.744  0.0976 -0.2871 -0.1784
10230SOL    HW132131   3.593   7.334   2.699  0.9115 -0.2127  0.0681
10230SOL    HW232132   3.558   7.188   2.676 -0.9826  0.2653 -0.2568
10231SOL     OW32133   2.289   5.025   1.817 -0.1918  0.0523 -0.2060
10231SOL    HW132134   2.355   4.961   1.789  2.0334  1.5242  1.3137
10231SOL    HW232135   2.298   5.028   1.912 -1.1844  1.6285 -0.1336
10232SOL     OW32136   2.604   6.039   1.050 -0.8747  0.2183 -0.3355
10232SOL    HW132137   2.624   5.955   1.008  1.2494  0.9586 -0.9776
10232SOL    HW232138   2.681   6.093   1.031 -0.0145  0.8507  3.9951
10233SOL     OW32139   2.812   7.618   2.015  0.1502  0.2552  0.3101
10233SOL    HW132140   2.854   7.548   1.965  0.8813  1.5935 -1.0262
10233SOL    HW232141   2.719   7.595   2.017 -0.1316  0.7811 -2.8486
10234SOL     OW32142   3.203   4.386  11.775  0.1614 -0.1930  0.9495
10234SOL    HW132143   3.209   4.373  11.869  1.8351 -0.7139  0.8058
10234SOL    HW232144   3.125   4.337  11.748  1.1144 -2.2117  1.7116
10235SOL     OW32145   1.727   5.854  12.266 -0.0723 -0.7606 -0.8315
10235SOL    HW132146   1.671   5.805  12.327  2.5143 -1.8296  0.8768
10235SOL    HW232147   1.719   5.945  12.294 -0.1729 -1.0363  0.0705
10236SOL     OW32148   0.390   6.660   2.483  0.7302 -0.8809 -0.2288
10236SOL    HW132149   0.460   6.603   2.513 -0.0186 -0.3285  2.8907
10236SOL    HW232150   0.311   6.607   2.488  0.3321 -0.2328  0.5809
10237SOL     OW32151   0.220   6.570   1.005  0.4243 -0.1707  0.1219
10237SOL    HW132152   0.164   6.611   0.939  0.6129 -1.6104 -0.9578
10237SOL    HW232153   0.308   6.575   0.969  1.0028  1.5698  1.5649
10238SOL     OW32154   3.165   6.807   1.319 -0.0283  0.0239 -0.0396
10238SOL    HW132155   3.120   6.812   1.404  1.0911 -0.5369  0.6150
10238SOL    HW232156   3.097   6.823   1.254 -0.9391  0.3018  0.9661
10239SOL     OW32157   3.771   7.039   1.714 -0.7765  0.2675 -0.1880
10239SOL    HW132158   3.810   7.060   1.628  1.1916 -0.1297  0.5433
10239SOL    HW232159   3.701   7.104   1.725  0.7052  2.1069 -0.9266
10240SOL     OW32160   2.300   6.257   0.707  0.3462  0.0220  0.2490
10240SOL    HW132161   2.211   6.285   0.684 -0.5019 -1.4483  1.5682
10240SOL    HW232162   2.329   6.320   0.773 -0.9695 -1.2274  2.1122
10241SOL     OW32163   3.360   0.122   1.690  0.4319 -0.0302  0.7093
10241SOL    HW132164   3.320   0.035   1.699  0.0875  0.0351 -0.1067
10241SOL    HW232165   3.375   0.151   1.780  0.7483 -1.0252  0.9836
10242SOL     OW32166   2.593   6.612   2.322 -0.2863 -0.2056 -0.1631
10242SOL    HW132167   2.631   6.649   2.401 -0.5781 -0.7312  0.2350
10242SOL    HW232168   2.596   6.683   2.258 -2.2892  1.0523  1.0289
10243SOL     OW32169   2.851   5.745   1.734 -0.0167  0.0578  0.6827
10243SOL    HW132170   2.923   5.779   1.789  0.7770 -1.0911  0.3859
10243SOL    HW232171   2.772   5.765   1.783  0.5859  0.3329  1.5708
10244SOL     OW32172   3.794   4.485  11.825 -0.1057 -0.6614 -0.0274
10244SOL    HW132173   3.798   4.402  11.872 -0.0786 -1.8287 -1.9904
10244SOL    HW232174   3.708   4.521  11.845 -0.7471 -1.9505 -0.3966
10245SOL     OW32175   3.594   6.528   0.596 -0.9112  0.1463  0.0329
10245SOL    HW132176   3.687   6.502   0.595 -0.5846  1.1292 -2.4403
10245SOL    HW232177   3.583   6.572   0.680  0.5386 -1.0399  0.8968
10246SOL     OW32178   3.634   5.800  10.957  0.3746  0.2419  0.4035
10246SOL    HW132179   3.649   5.718  10.909  0.8542  0.6055 -0.0853
10246SOL    HW232180   3.722   5.835  10.972  0.1347  1.1277 -0.2112
10247SOL     OW32181   3.082   5.912  11.815 -0.2059  0.1278  0.2352
10247SOL    HW132182   3.169   5.951  11.813 -0.5676  0.9545  0.3163
10247SOL    HW232183   3.066   5.892  11.907  0.2004 -0.7255  0.1243
10248SOL     OW32184   1.000   5.859   0.333  0.2038  0.1708  0.8485
10248SOL    HW132185   1.065   5.860   0.262  0.8908 -0.9857  1.4343
10248SOL    HW232186   1.051   5.843   0.412 -0.5412  1.5722  1.6412
10249SOL     OW32187   3.037   6.049   0.564 -0.4367 -0.0789 -0.5063
10249SOL    HW132188   3.085   6.127   0.536 -1.1388 -0.1065 -1.8703
10249SOL    HW232189   3.021   6.063   0.657 -1.5767  1.9828 -0.9563
10250SOL     OW32190   2.487   4.799   1.796 -0.2033 -0.5709 -0.4883
10250SOL    HW132191   2.467   4.773   1.706  2.2957 -1.8189 -0.7601
10250SOL    HW232192   2.467   4.722   1.849 -1.1692 -0.0117 -0.0018
10251SOL     OW32193   1.539   6.750   1.917  0.0693 -0.1990 -0.0555
10251SOL    HW132194   1.587   6.680   1.873 -0.3588 -1.3730  1.2656
10251SOL    HW232195   1.563   6.829   1.870  2.0443 -0.9694 -0.4319
10252SOL     OW32196   1.750   6.700  12.297 -0.7667 -0.1451 -0.2199
10252SOL    HW132197   1.835   6.739  12.276 -0.1435 -1.2812  0.0806
10252SOL    HW232198   1.765   6.606  12.290 -2.1136 -0.3546 -0.5346
10253SOL     OW32199   2.457   5.427   2.926 -0.1350 -0.2074  0.3656
10253SOL    HW132200   2.537   5.390   2.962  0.4216 -1.1408 -1.6814
10253SOL    HW232201   2.484   5.512   2.891  0.2595 -0.9452 -1.2263
10254SOL     OW32202   1.510   5.831   0.939  0.1740  0.4406  0.2501
10254SOL    HW132203   1.478   5.921   0.930 -1.1058  0.0324  0.5607
10254SOL    HW232204   1.518   5.818   1.034  0.2170  0.1756  0.2100
10255SOL     OW32205   1.383   5.907   3.293  0.0583 -0.1396 -0.6345
10255SOL    HW132206   1.392   5.814   3.316 -1.7778 -0.1406  0.2473
10255SOL    HW232207   1.441   5.953   3.354  1.9040 -0.7423 -1.8507
10256SOL     OW32208   3.616   7.418   2.182 -0.0229  0.8850 -0.3066
10256SOL    HW132209   3.689   7.481   2.180 -1.1949  2.2930 -0.2539
10256SOL    HW232210   3.630   7.364   2.104  1.2656  0.8977 -0.1105
10257SOL     OW32211   3.084   5.825   0.052  0.2541 -0.1287 -0.5980
10257SOL    HW132212   3.126   5.745   0.083  1.9387  1.1152  0.5074
10257SOL    HW232213   3.011   5.838   0.113  1.4602  0.4449  0.7802
10258SOL     OW32214   4.124   6.428   1.528  0.0932  0.5491 -0.4595
10258SOL    HW132215   4.073   6.483   1.469  0.8729  2.0354  0.2106
10258SOL    HW232216   4.215   6.451   1.511  0.3228  1.3240  1.5820
10259SOL     OW32217   0.746   6.235   1.587  0.0162  0.4196  0.0369
10259SOL    HW132218   0.747   6.149   1.629  1.5463  0.7895  0.8288
10259SOL    HW232219   0.791   6.221   1.503  0.7608  0.5645  0.4126
10260SOL     OW32220   3.299   5.876   1.124 -0.0967 -0.5084  0.1495
10260SOL    HW132221   3.310   5.841   1.035 -1.4544 -0.6542  0.0209
10260SOL    HW232222   3.293   5.971   1.112  0.6728 -0.4437  0.2005
10261SOL     OW32223   1.628   6.977  12.443  0.3575  0.1305  0.4405
10261SOL    HW132224   1.717   6.943  12.445  0.7995  1.2116 -0.0728
10261SOL    HW232225   1.616   7.018  12.528  0.2233 -0.3130  0.6374
10262SOL     OW32226   2.504   5.907  11.384  0.1826 -0.1531  0.4973
10262SOL    HW132227   2.510   5.816  11.412 -2.3640 -0.3805  0.5691
10262SOL    HW232228   2.549   5.956  11.453  0.3604 -1.2502  1.1895
10263SOL     OW32229   0.995   6.291   3.252 -0.3883 -0.7402  0.1607
10263SOL    HW132230   0.921   6.230   3.243 -0.8070 -0.2874  0.4594
10263SOL    HW232231   1.017   6.287   3.345 -0.4583 -0.3920  0.1916
10264SOL     OW32232   4.103   7.586   2.084  0.2667  0.1312 -0.1385
10264SOL    HW132233   4.077   7.508   2.035 -2.3144 -0.2395  1.6064
10264SOL    HW232234   4.086   7.659   2.025 -2.6912 -0.3141  0.0060
10265SOL     OW32235   1.869   6.915   0.024 -0.1138  0.2492  0.4149
10265SOL    HW132236   1.892   6.823   0.029  0.2360  0.3294  0.3116
10265SOL    HW232237   1.858   6.943   0.115  1.3446  0.4898  0.5496
10266SOL     OW32238   2.065   6.332   0.515 -0.1208  0.0940  0.0642
10266SOL    HW132239   2.051   6.370   0.601 -2.4019 -0.7171  0.1100
10266SOL    HW232240   1.982   6.343   0.470  0.7138 -0.4121 -1.6954
10267SOL     OW32241   3.915   7.477   0.671 -0.1080  0.7979 -0.1021
10267SOL    HW132242   3.978   7.465   0.601  1.5409  2.0817  1.0504
10267SOL    HW232243   3.871   7.560   0.650  1.0723  1.7004  0.7736
10268SOL     OW32244   2.540   6.473   0.579 -0.5717 -0.4620  0.2491
10268SOL    HW132245   2.625   6.503   0.548 -0.6459 -0.7321 -0.2332
10268SOL    HW232246   2.555   6.441   0.667 -0.1640 -0.5501  0.1483
10269SOL     OW32247   1.530   6.935   1.511  0.3237  0.6254 -0.7626
10269SOL    HW132248   1.530   6.871   1.440 -1.8876 -1.4381  0.9277
10269SOL    HW232249   1.510   7.019   1.468 -0.5435 -0.4674 -2.6212
10270SOL     OW32250   2.500   6.178   0.420 -0.1684  0.1907  0.0075
10270SOL    HW132251   2.461   6.109   0.473  0.7762 -0.3216  0.0682
10270SOL    HW232252   2.483   6.259   0.468  0.3782 -0.2267  0.9332
10271SOL     OW32253   2.871   4.854   1.226 -0.1891  0.3694  0.0825
10271SOL    HW132254   2.926   4.866   1.148  0.6277 -0.4478  0.5185
10271SOL    HW232255   2.785   4.830   1.192 -0.0157  0.6808 -0.5861
10272SOL     OW32256   2.843   7.115   1.160 -0.4677 -0.5900 -0.4904
10272SOL    HW132257   2.918   7.131   1.217 -1.2309  0.3566  0.2696
10272SOL    HW232258   2.868   7.037   1.111  1.5291  0.3905 -1.1512
10273SOL     OW32259   1.492   6.875   4.213 -0.2864 -0.6180  0.1286
10273SOL    HW132260   1.444   6.792   4.211  1.4050 -1.6350 -1.3239
10273SOL    HW232261   1.581   6.851   4.235  0.3040  0.7838 -0.5682
10274SOL     OW32262   4.377   7.480   1.417 -0.5813 -0.1521 -0.3878
10274SOL    HW132263   4.298   7.524   1.447 -0.6387  0.3280 -1.2033
10274SOL    HW232264   4.389   7.407   1.477 -0.4057  1.0537  1.1238
10275SOL     OW32265   1.549   6.157   1.528  0.5934 -0.9449 -0.5038
10275SOL    HW132266   1.549   6.231   1.467 -1.5603 -2.4186 -2.4664
10275SOL    HW232267   1.627   6.108   1.504  2.0282  0.5851  0.7966
10276SOL     OW32268   2.340   5.678   0.037 -0.6041 -0.1420 -0.2424
10276SOL    HW132269   2.332   5.761   0.085 -0.7457 -0.6342  0.5864
10276SOL    HW232270   2.356   5.705  -0.054 -1.1193  0.7973 -0.0628
10277SOL     OW32271   2.000   6.818   1.975  0.3102  0.0565  0.2377
10277SOL    HW132272   1.949   6.899   1.980  1.8049  1.1780 -1.3867
10277SOL    HW232273   2.062   6.823   2.048  2.0001  1.6235 -1.2127
10278SOL     OW32274   3.631   4.836   0.677 -0.0225 -0.3473 -0.1506
10278SOL    HW132275   3.607   4.744   0.669  0.4102 -0.3028 -2.7401
10278SOL    HW232276   3.675   4.857   0.595 -0.1038  2.1838  0.3647
10279SOL     OW32277   3.057   6.334   1.118  0.2945  0.3814 -0.3329
10279SOL    HW132278   3.067   6.388   1.197  1.6703 -1.1059  0.5807
10279SOL    HW232279   3.056   6.396   1.046  0.8548  1.6915  0.7451
10280SOL     OW32280   3.281   6.233  12.150 -0.0507  0.9233  0.1078
10280SOL    HW132281   3.237   6.257  12.231 -0.9519  2.6858 -0.8505
10280SOL    HW232282   3.271   6.138  12.144 -1.2456  0.9529  1.3377
10281SOL     OW32283   1.262   5.750   0.833 -0.1827  0.5924  0.2832
10281SOL    HW132284   1.354   5.726   0.827 -0.5391 -0.4497 -1.5967
10281SOL    HW232285   1.263   5.839   0.870  1.4553  0.0020  1.8131
10282SOL     OW32286   2.765   6.660   0.830  0.3927 -0.1644  0.2965
10282SOL    HW132287   2.727   6.581   0.869 -0.4321 -0.3731 -0.8933
10282SOL    HW232288   2.692   6.723   0.830  0.9310  0.4746  0.8524
10283SOL     OW32289   1.958   7.232   0.311 -0.6039  0.0125  0.0155
10283SOL    HW132290   2.047   7.203   0.330 -0.6066  0.7302  1.2036
10283SOL    HW232291   1.919   7.249   0.396 -1.7533  0.1032 -0.5084
10284SOL     OW32292   2.823   6.148  12.131 -0.3478 -0.2132  0.4338
10284SOL    HW132293   2.737   6.187  12.118 -1.3073 -1.1013  3.3643
10284SOL    HW232294   2.828   6.079  12.064 -1.4184  0.5459 -0.4722
10285SOL     OW32295   2.020   7.684   0.109 -0.3151 -0.5240 -0.3190
10285SOL    HW132296   2.027   7.619   0.039 -2.4901 -1.2924  0.0938
10285SOL    HW232297   2.030   7.768   0.064 -0.7765 -1.0295 -1.4119
10286SOL     OW32298   3.635   5.711   1.710 -0.2627  0.5741 -0.1291
10286SOL    HW132299   3.680   5.759   1.780 -2.0876  1.2636  0.6376
10286SOL    HW232300   3.642   5.769   1.634  0.9440  0.2356 -0.2978
10287SOL     OW32301   1.754   6.145  11.883 -0.0710  0.4417 -0.1970
10287SOL    HW132302   1.662   6.125  11.897 -0.1988  0.7968 -0.5215
10287SOL    HW232303   1.766   6.233  11.918 -0.0084  0.6574 -0.7462
10288SOL     OW32304   5.452   6.044   2.851  0.0753 -0.7297 -0.6939
10288SOL    HW132305   5.402   6.123   2.868 -0.3093 -1.0471 -0.3073
10288SOL    HW232306   5.467   6.006   2.938  1.2679 -0.4732 -0.7746
10289SOL     OW32307   1.314   6.020   1.954  0.3182 -0.1804  0.3091
10289SOL    HW132308   1.401   5.993   1.924  0.3797  1.9108 -1.7141
10289SOL    HW232309   1.259   5.943   1.942  1.1855 -0.5553 -1.8618
10290SOL     OW32310   1.642   6.308   1.144  0.2150 -0.3238  0.2792
10290SOL    HW132311   1.695   6.246   1.194  0.2503 -0.0780  0.5517
10290SOL    HW232312   1.590   6.354   1.210  0.3695  0.1074  0.1057
10291SOL     OW32313   2.053   5.431   0.264 -0.2911  0.3681 -0.2312
10291SOL    HW132314   1.988   5.393   0.324  0.0246 -0.3098 -0.3027
10291SOL    HW232315   2.118   5.471   0.321  0.3158 -0.7858 -0.0830
10292SOL     OW32316   4.177   6.009   0.060  1.1382 -0.1831 -0.4673
10292SOL    HW132317   4.098   6.028   0.110  1.2201 -0.9538 -0.0247
10292SOL    HW232318   4.244   6.065   0.099  1.6164 -1.9613  1.4753
10293SOL     OW32319   3.424   5.119   1.156  0.4459  0.0557  0.1311
10293SOL    HW132320   3.493   5.069   1.111  0.5327  0.6145 -0.3748
10293SOL    HW232321   3.368   5.052   1.196  1.3065 -0.4107  0.5998
10294SOL     OW32322   2.861   5.922   0.419 -0.2276  0.0096 -0.1939
10294SOL    HW132323   2.855   5.950   0.328 -0.2370  1.0875  0.1216
10294SOL    HW232324   2.913   5.990   0.462 -0.3395 -0.4100  0.6314
10295SOL     OW32325   3.054   6.739   1.563  0.3961 -0.0154  0.3947
10295SOL    HW132326   3.051   6.803   1.635  0.1786 -1.8102  2.0693
10295SOL    HW232327   3.137   6.693   1.576  0.0515 -0.7914 -0.1164
10296SOL     OW32328   1.728   7.814   0.628 -0.7668  1.2866  0.2314
10296SOL    HW132329   1.820   7.838   0.640 -0.1468 -1.0782  0.8384
10296SOL    HW232330   1.708   7.840   0.538  1.3083 -0.3740 -0.8029
10297SOL     OW32331   4.899   5.319   2.559 -0.2108  0.1717  0.2846
10297SOL    HW132332   4.948   5.395   2.528 -0.3266  0.8653  1.7058
10297SOL    HW232333   4.901   5.327   2.655 -3.3934  0.4117  0.4325
10298SOL     OW32334   2.601   7.065   1.497 -0.4083  0.0327 -0.2250
10298SOL    HW132335   2.562   7.095   1.579 -0.2694  1.9008 -0.7982
10298SOL    HW232336   2.688   7.034   1.522  0.5162  2.6248  0.1246
10299SOL     OW32337   1.482   7.207   1.338  0.6357  0.1909  0.1419
10299SOL    HW132338   1.562   7.256   1.318  1.0756  0.2291  1.8190
10299SOL    HW232339   1.452   7.244   1.420 -1.6253  0.7724 -0.8780
10300SOL     OW32340   4.215   0.062   1.384 -0.3210  0.2020  0.1025
10300SOL    HW132341   4.203  -0.027   1.351  0.7834  0.0927 -0.0307
10300SOL    HW232342   4.141   0.111   1.347 -1.9897 -1.0102  1.6309
10301SOL     OW32343   2.651   7.152  12.153 -0.1515  0.1560  0.3918
10301SOL    HW132344   2.673   7.179  12.242 -0.8550  1.7796  0.1066
10301SOL    HW232345   2.618   7.232  12.111  0.1931 -0.5695 -1.3369
10302SOL     OW32346   4.017   6.626   2.119 -0.3550 -0.3229 -0.1429
10302SOL    HW132347   3.924   6.647   2.121 -0.1669  0.4922  1.2608
10302SOL    HW232348   4.059   6.697   2.168  0.9468 -0.9797 -0.2606
10303SOL     OW32349   4.218   7.213   4.087  0.7486  0.7567  0.7136
10303SOL    HW132350   4.310   7.190   4.075  1.0211  1.4624  1.3190
10303SOL    HW232351   4.187   7.153   4.155 -0.0933 -1.5001 -1.4965
10304SOL     OW32352   4.943   7.066   1.422  0.2584 -0.0830 -0.5668
10304SOL    HW132353   4.990   7.103   1.497 -0.4590  1.1000 -0.6741
10304SOL    HW232354   5.011   7.019   1.373  0.5745 -1.7207  1.2773
10305SOL     OW32355   1.899   6.859  12.070  0.7859 -0.0102 -0.7976
10305SOL    HW132356   1.821   6.910  12.092  0.1882 -1.1579 -0.1573
10305SOL    HW232357   1.971   6.921  12.077 -0.0881  1.1779 -1.7881
10306SOL     OW32358   3.703   7.242   0.765 -0.1759 -0.4851 -0.4461
10306SOL    HW132359   3.720   7.325   0.810  1.2143 -0.2544 -1.3278
10306SOL    HW232360   3.624   7.259   0.713 -0.2300  0.0974 -0.1889
10307SOL     OW32361   3.681   7.032   2.974  0.1863  0.6459  0.2745
10307SOL    HW132362   3.685   7.034   2.879 -0.6746 -0.0087  0.2089
10307SOL    HW232363   3.770   7.052   3.003  0.4885  0.6911 -0.6688
10308SOL     OW32364   1.328   7.273  12.434 -0.2762 -0.6733 -0.2325
10308SOL    HW132365   1.266   7.326  12.385  0.2361 -1.2729 -1.5733
10308SOL    HW232366   1.299   7.183  12.419 -0.0874 -0.8726  0.5523
10309SOL     OW32367   3.813   7.929   1.434 -0.0225  0.0678  0.0635
10309SOL    HW132368   3.753   7.970   1.372 -0.6635 -0.6558  0.1930
10309SOL    HW232369   3.856   8.003   1.477  2.5311  0.6869 -3.1355
10310SOL     OW32370   0.946   5.954   1.237  0.1297 -0.3069 -0.4153
10310SOL    HW132371   0.870   5.943   1.181  0.8045 -1.7666 -1.0928
10310SOL    HW232372   1.017   5.975   1.177  0.7236 -1.2277 -0.0588
10311SOL     OW32373   2.121   6.316   0.205  0.3326  0.1583  0.0249
10311SOL    HW132374   2.154   6.380   0.268  2.8425 -0.8525 -0.1246
10311SOL    HW232375   2.070   6.368   0.143 -2.4960  1.1415  2.9253
10312SOL     OW32376   3.735   5.129   0.473 -0.3849  0.4322  0.2250
10312SOL    HW132377   3.763   5.037   0.465 -0.0271  0.4605  1.0262
10312SOL    HW232378   3.640   5.126   0.463 -0.4418 -0.1122  0.8022
10313SOL     OW32379   1.970   5.011   1.736 -0.1485  0.2062  0.0190
10313SOL    HW132380   2.001   5.101   1.749 -0.1645  0.0998  0.8097
10313SOL    HW232381   1.974   4.971   1.823 -0.6065 -0.4159 -0.2390
10314SOL     OW32382   1.775   6.674   1.247 -0.2927  0.2502  0.0945
10314SOL    HW132383   1.864   6.688   1.279 -0.9144  1.2405  1.4922
10314SOL    HW232384   1.785   6.608   1.178  1.3911 -0.4084  0.8934
10315SOL     OW32385   2.452   7.657   1.765 -0.4608  0.1172  0.2442
10315SOL    HW132386   2.468   7.622   1.853  0.7878 -1.9966 -0.7448
10315SOL    HW232387   2.458   7.752   1.775 -0.1491 -0.0821  2.3843
10316SOL     OW32388   1.851   4.448   2.147 -0.6253  0.4299 -0.2521
10316SOL    HW132389   1.917   4.380   2.154 -0.5064  0.3521 -1.7183
10316SOL    HW232390   1.771   4.408   2.181 -0.1824  0.1497  0.4754
10317SOL     OW32391   3.276   7.407   1.475 -0.2301  0.1041 -0.2168
10317SOL    HW132392   3.260   7.500   1.491  0.6513  0.2125  0.0834
10317SOL    HW232393   3.337   7.380   1.543 -1.6380 -1.0885  0.6498
10318SOL     OW32394   2.533   4.944   0.294 -0.6218  0.4050 -0.4698
10318SOL    HW132395   2.505   4.877   0.356  0.2907 -0.5810 -1.0842
10318SOL    HW232396   2.453   4.972   0.250 -1.0406 -0.1705 -0.0784
10319SOL     OW32397   3.391   5.730   1.334 -0.7985 -0.2699 -0.0811
10319SOL    HW132398   3.353   5.796   1.276  1.1776  1.1221  0.1151
10319SOL    HW232399   3.414   5.658   1.275  0.1133  0.6412 -0.8864
10320SOL     OW32400   3.253   6.194   0.451 -0.2607  0.0788 -0.2351
10320SOL    HW132401   3.231   6.273   0.403 -0.3141  0.8044  0.9450
10320SOL    HW232402   3.348   6.197   0.461 -0.4321  1.0382  1.4964
10321SOL     OW32403   3.248   0.477   0.213 -0.1915 -0.0428 -0.6169
10321SOL    HW132404   3.233   0.529   0.293  1.7502  1.9655 -1.4519
10321SOL    HW232405   3.329   0.429   0.230 -1.3927 -2.0534 -0.2815
10322SOL     OW32406   2.799   5.112   0.625  0.0015 -0.3148 -0.1793
10322SOL    HW132407   2.895   5.119   0.623 -0.0195  0.1260  0.1378
10322SOL    HW232408   2.782   5.025   0.661  0.2846  0.0952  0.9925
10323SOL     OW32409   3.555   6.398   1.111 -0.0428  0.2071  0.3954
10323SOL    HW132410   3.521   6.351   1.034 -1.1722 -0.2199  1.1297
10323SOL    HW232411   3.544   6.490   1.090  2.8306  0.2955 -1.3600
10324SOL     OW32412   3.636   6.258   2.092  0.6073 -0.4590 -0.2028
10324SOL    HW132413   3.596   6.333   2.048  1.6266  0.3039  0.1249
10324SOL    HW232414   3.682   6.212   2.023  1.7344  0.4218 -0.0704
10325SOL     OW32415   2.001   6.924  11.352  0.4288  0.0235  0.2575
10325SOL    HW132416   1.941   6.999  11.349  1.7420  1.2377  2.1509
10325SOL    HW232417   1.967   6.870  11.423  1.0300  0.2237  0.6984
10326SOL     OW32418   3.504   6.654   2.498 -0.3085 -0.1615  0.3835
10326SOL    HW132419   3.521   6.685   2.410  0.8445 -1.5950  0.0555
10326SOL    HW232420   3.472   6.564   2.487  0.5664 -0.6313  1.4353
10327SOL     OW32421   3.296   5.479   2.871  0.2972  0.2231 -0.5643
10327SOL    HW132422   3.208   5.440   2.865 -0.6428  2.2843 -0.9559
10327SOL    HW232423   3.323   5.463   2.962 -0.3923 -0.5742 -0.4820
10328SOL     OW32424   3.348   5.767   2.396 -0.3814 -0.1861 -0.8195
10328SOL    HW132425   3.304   5.692   2.355 -0.2116 -0.4104 -0.5911
10328SOL    HW232426   3.372   5.736   2.483  1.8084 -0.6769 -1.5347
10329SOL     OW32427   2.874   7.028   2.419  0.0980  0.1861  0.9780
10329SOL    HW132428   2.918   7.073   2.346 -1.3849  1.4734  0.8267
10329SOL    HW232429   2.938   7.031   2.490  0.8936  0.5065  0.2697
10330SOL     OW32430   4.674   7.472   2.564 -0.2657 -0.6799 -0.2634
10330SOL    HW132431   4.610   7.402   2.581  0.0935 -1.0718 -0.5201
10330SOL    HW232432   4.665   7.491   2.471 -0.5955 -0.1464 -0.1281
10331SOL     OW32433   2.011   7.219   0.833 -0.5087 -0.4174 -0.1654
10331SOL    HW132434   1.999   7.290   0.769  0.6577 -0.0196  0.0414
10331SOL    HW232435   2.046   7.261   0.911 -1.0418 -1.0423  0.4304
10332SOL     OW32436   4.179   5.860   2.141 -0.4585 -0.5799 -0.1343
10332SOL    HW132437   4.232   5.784   2.163  2.1067  0.9321 -0.6913
10332SOL    HW232438   4.177   5.861   2.045  0.4982  0.6220 -0.1692
10333SOL     OW32439   1.527   6.648   3.204  0.1222 -0.6052  0.3227
10333SOL    HW132440   1.599   6.637   3.266 -0.2944 -1.6337  0.6498
10333SOL    HW232441   1.456   6.594   3.240 -0.2595 -0.9115 -0.8389
10334SOL     OW32442   3.430   6.123   4.507 -0.4148 -0.1815 -0.4151
10334SOL    HW132443   3.382   6.119   4.424 -0.5495 -0.2205 -0.3343
10334SOL    HW232444   3.372   6.167   4.568 -0.5983 -0.7805 -0.1496
10335SOL     OW32445   1.939   5.579   3.312  0.8210 -0.2710  0.5255
10335SOL    HW132446   1.936   5.647   3.244  2.7374  0.4009  1.0478
10335SOL    HW232447   2.022   5.595   3.358 -0.3256 -0.8318  2.9194
10336SOL     OW32448   1.913   6.386   3.141 -0.3020  0.3973  0.0738
10336SOL    HW132449   1.940   6.478   3.145 -1.4966  0.7146  1.5834
10336SOL    HW232450   1.995   6.337   3.145  0.3416  1.3808 -0.5733
10337SOL     OW32451   2.370   7.686  12.472  0.0188 -0.0724 -0.3842
10337SOL    HW132452   2.437   7.619  12.484  0.7934  0.6320 -0.6699
10337SOL    HW232453   2.334   7.701  12.559  0.1602 -0.5319 -0.2472
10338SOL     OW32454   4.334   6.172   4.563 -0.0208  0.5893  0.2592
10338SOL    HW132455   4.377   6.252   4.532  0.0475  0.4030 -0.1326
10338SOL    HW232456   4.317   6.188   4.656 -1.5537  1.7393 -0.1879
10339SOL     OW32457   0.529   7.286   4.492  0.2583 -0.3219  0.3601
10339SOL    HW132458   0.544   7.262   4.583  2.7051 -0.4619 -0.0083
10339SOL    HW232459   0.463   7.355   4.495  0.3641 -0.2655  2.2421
10340SOL     OW32460   3.686   6.554   1.340 -0.1506  0.6133  0.0952
10340SOL    HW132461   3.661   6.612   1.412 -0.4643 -1.3481  1.6694
10340SOL    HW232462   3.608   6.550   1.285 -0.1673  1.5554  0.0301
10341SOL     OW32463   1.099   7.476   2.381  0.2415  0.5065 -0.3071
10341SOL    HW132464   1.145   7.460   2.299  2.1777 -2.7064  1.2405
10341SOL    HW232465   1.128   7.564   2.408  2.2852  0.2218 -1.4076
10342SOL     OW32466   3.893   0.720   3.793 -0.2276  0.0918 -0.1132
10342SOL    HW132467   3.896   0.658   3.721  1.5925  0.7748 -0.6880
10342SOL    HW232468   3.800   0.734   3.809 -0.7216 -2.8590  0.1738
10343SOL     OW32469   1.846   6.638   0.721 -0.4449  0.1380 -0.3703
10343SOL    HW132470   1.898   6.718   0.718 -1.0712  0.5865  0.5777
10343SOL    HW232471   1.787   6.645   0.646 -1.5870  1.3410  0.5820
10344SOL     OW32472   1.916   7.895   0.851  0.6184  0.5899 -0.0164
10344SOL    HW132473   1.964   7.814   0.869 -0.6169 -0.5323 -1.4923
10344SOL    HW232474   1.837   7.888   0.903 -0.0262  0.2735 -1.0067
10345SOL     OW32475   2.899   7.438   1.522  0.0750  0.3493 -0.2216
10345SOL    HW132476   2.873   7.414   1.433  0.7366 -0.0905 -0.3024
10345SOL    HW232477   2.859   7.524   1.537 -0.8942 -0.0398 -0.5616
10346SOL     OW32478   1.044   6.951   2.480 -0.1403  0.5449  0.0218
10346SOL    HW132479   1.086   6.866   2.495  1.8283  1.4578 -0.0914
10346SOL    HW232480   1.039   6.990   2.568 -1.0625  0.3320  0.0758
10347SOL     OW32481   5.035   6.738   3.231 -0.0078 -0.1786 -1.0009
10347SOL    HW132482   5.005   6.816   3.185  1.6709  1.0258 -0.1531
10347SOL    HW232483   5.112   6.709   3.182  1.3292  0.6583  0.5022
10348SOL     OW32484   2.874   6.208   3.309  0.2714 -0.4283 -0.1824
10348SOL    HW132485   2.923   6.288   3.328 -1.2977  0.4395  0.4350
10348SOL    HW232486   2.890   6.151   3.384 -1.3260  0.7140  1.0958
10349SOL     OW32487   5.180   7.986   3.276 -0.9284 -0.6283  0.3790
10349SOL    HW132488   5.147   8.069   3.310 -1.0142  0.2748 -1.7731
10349SOL    HW232489   5.107   7.925   3.285 -2.4071  0.6510 -1.8471
10350SOL     OW32490   1.975   6.501   1.732  0.0287  0.4349  0.2279
10350SOL    HW132491   2.002   6.588   1.761 -1.0386  0.7061  0.4566
10350SOL    HW232492   2.057   6.453   1.722  0.6775  1.6432 -0.5004
10351SOL     OW32493   4.287   7.391   2.768  0.6250 -0.3056  0.4289
10351SOL    HW132494   4.284   7.466   2.708  0.6724  0.2390  1.0946
10351SOL    HW232495   4.294   7.430   2.855 -0.7808 -1.0600  0.9046
10352SOL     OW32496   5.065   5.524   2.470 -0.7197  0.3090  0.1728
10352SOL    HW132497   5.131   5.569   2.417 -0.0500  1.2047  1.6732
10352SOL    HW232498   5.024   5.594   2.521 -1.6680 -0.4567  0.4921
10353SOL     OW32499   1.249   6.528   3.008  0.3534 -0.2011 -0.0755
10353SOL    HW132500   1.218   6.541   3.097 -0.4731 -0.1354 -0.3685
10353SOL    HW232501   1.221   6.606   2.961  1.4265  0.1043 -0.2314
10354SOL     OW32502   2.431   7.412   0.969  0.0889  0.4204  0.4603
10354SOL    HW132503   2.518   7.382   0.944  0.4754 -0.0175  2.1969
10354SOL    HW232504   2.376   7.393   0.893  1.1440 -0.9517 -0.0008
10355SOL     OW32505   3.812   5.990   3.395 -0.7435 -0.1736  0.3436
10355SOL    HW132506   3.730   6.019   3.356 -0.6391 -0.4666 -0.1064
10355SOL    HW232507   3.849   6.068   3.435 -0.5387  0.3002 -0.7228
10356SOL     OW32508   2.440   6.451   3.974 -0.1961  0.1288 -0.0157
10356SOL    HW132509   2.525   6.479   4.006 -0.0680  1.5146 -1.4412
10356SOL    HW232510   2.460   6.389   3.903 -0.4350 -1.1689  1.0166
10357SOL     OW32511   0.957   0.004   2.196 -0.2458  0.1288  0.0647
10357SOL    HW132512   0.949   0.044   2.282 -1.2636  0.0344  0.0330
10357SOL    HW232513   0.868   0.007   2.160  0.2501  0.6305 -1.1907
10358SOL     OW32514   4.909   7.570   2.443 -0.3032 -0.0465 -0.3337
10358SOL    HW132515   4.881   7.576   2.535 -1.4571  0.2506 -0.6811
10358SOL    HW232516   4.949   7.483   2.436  0.1522  0.0841  0.5357
10359SOL     OW32517   2.904   6.842   3.257 -0.4574 -0.1045 -0.0202
10359SOL    HW132518   2.838   6.889   3.307 -0.5595 -1.2342  0.9588
10359SOL    HW232519   2.974   6.825   3.320 -0.0483 -0.4969 -0.5726
10360SOL     OW32520   2.843   5.057   2.582  0.3600 -0.4408 -0.4049
10360SOL    HW132521   2.751   5.051   2.608  0.0304 -0.2207 -1.4608
10360SOL    HW232522   2.889   4.996   2.640 -0.1251  0.9378  1.5096
10361SOL     OW32523   2.855   7.512   3.135  0.2583  0.3619 -0.0281
10361SOL    HW132524   2.908   7.443   3.175  1.3755 -1.0071 -3.4760
10361SOL    HW232525   2.888   7.593   3.175  0.0640 -0.8748  2.9112
10362SOL     OW32526   3.535   7.920   4.116  0.0573  0.7839 -0.3209
10362SOL    HW132527   3.484   8.001   4.124 -1.0649  0.2106 -1.3591
10362SOL    HW232528   3.598   7.939   4.046  0.0907  0.9028 -0.2598
10363SOL     OW32529   2.058   5.269   1.599 -0.7765  0.0043  0.1382
10363SOL    HW132530   2.001   5.298   1.527  0.3777  1.9386 -0.0519
10363SOL    HW232531   2.080   5.350   1.646  3.1763 -0.3553 -0.8133
10364SOL     OW32532   3.755   6.172   1.651 -0.5507 -0.5155 -0.0099
10364SOL    HW132533   3.737   6.201   1.561 -0.7844  1.0722  0.5109
10364SOL    HW232534   3.841   6.208   1.671 -0.2740 -1.3029  0.2343
10365SOL     OW32535   3.530   7.738   2.141  0.3794 -1.1244  0.2995
10365SOL    HW132536   3.591   7.733   2.214  0.3670 -2.5546  0.2453
10365SOL    HW232537   3.544   7.657   2.092 -1.1055 -1.1856 -0.0790
10366SOL     OW32538   4.691   6.917   3.208 -0.4512  0.4958 -0.2213
10366SOL    HW132539   4.784   6.925   3.229 -0.2225  0.3486 -1.1294
10366SOL    HW232540   4.648   6.978   3.268  0.0693 -0.4699  1.1864
10367SOL     OW32541   3.473   5.739   3.387 -0.2703 -0.7028  0.1557
10367SOL    HW132542   3.504   5.815   3.338 -0.1503  0.2048  1.5870
10367SOL    HW232543   3.531   5.735   3.463 -1.2296 -1.3298  0.8718
10368SOL     OW32544   3.228   0.342   3.982  0.0514 -0.3017 -0.2016
10368SOL    HW132545   3.227   0.397   3.903  0.5072  0.0580  0.0400
10368SOL    HW232546   3.144   0.296   3.980 -0.4546  0.6122 -0.2577
10369SOL     OW32547   3.681   5.553   1.302 -0.0257  0.0577 -0.2304
10369SOL    HW132548   3.612   5.491   1.280 -2.4355  2.1729  0.8316
10369SOL    HW232549   3.689   5.546   1.397 -1.9412  2.7308  0.2519
10370SOL     OW32550   2.930   5.536   1.163  0.3672 -0.2955  0.5777
10370SOL    HW132551   2.980   5.572   1.237  0.0517  0.4115  0.4534
10370SOL    HW232552   2.866   5.479   1.204  0.5184 -0.2950  0.8202
10371SOL     OW32553   4.202   6.873   2.950  0.2214  0.0435  0.3389
10371SOL    HW132554   4.288   6.856   2.990  1.0600  0.1339 -1.3511
10371SOL    HW232555   4.220   6.882   2.857 -1.7162 -0.4564 -0.1276
10372SOL     OW32556   2.303   7.823   2.205  0.2008  0.0309 -0.6026
10372SOL    HW132557   2.295   7.897   2.146  0.2000 -0.0426 -0.6955
10372SOL    HW232558   2.251   7.754   2.164 -1.4907  0.5916  0.4734
10373SOL     OW32559   3.876   6.255   3.232 -0.1861  0.1789 -0.4560
10373SOL    HW132560   3.892   6.252   3.326  0.4396  2.8995 -0.4058
10373SOL    HW232561   3.908   6.341   3.204 -2.4447  0.3952 -2.7631
10374SOL     OW32562   5.433   7.476   1.864 -0.0593  0.0814 -1.1048
10374SOL    HW132563   5.438   7.564   1.902  1.3696  0.2553 -1.6038
10374SOL    HW232564   5.432   7.492   1.769 -2.3320 -0.3849 -1.2179
10375SOL     OW32565   4.837   7.744   3.896 -0.2334  0.5119  0.0150
10375SOL    HW132566   4.836   7.662   3.945 -0.7859  0.1564 -0.5736
10375SOL    HW232567   4.804   7.809   3.959 -1.2776 -0.0037  0.0367
10376SOL     OW32568   5.088   7.016   3.039  0.7334 -0.2184 -0.1516
10376SOL    HW132569   5.155   6.949   3.029  1.0185 -0.0635  0.6840
10376SOL    HW232570   5.136   7.097   3.055  0.3632  0.0033 -0.1362
10377SOL     OW32571   1.893   6.921   2.620  0.5037 -0.6805  0.7489
10377SOL    HW132572   1.841   6.978   2.678  0.6634  0.3930 -0.1352
10377SOL    HW232573   1.974   6.970   2.606  0.5688 -1.0473 -0.1723
10378SOL     OW32574   4.180   6.007   5.135  0.3140  0.1611 -0.2526
10378SOL    HW132575   4.143   6.076   5.190 -0.8685 -1.4890  1.1318
10378SOL    HW232576   4.122   5.932   5.149  2.2717 -1.5141 -0.6844
10379SOL     OW32577   4.176   6.528   3.699 -0.3442 -0.3926  0.0045
10379SOL    HW132578   4.192   6.619   3.725  1.3130 -0.6375 -0.0469
10379SOL    HW232579   4.142   6.487   3.778  0.8100 -0.1700  0.6515
10380SOL     OW32580   3.968   6.982   2.571  0.0748 -0.3753  0.1908
10380SOL    HW132581   3.907   7.015   2.638 -1.2062  1.4773 -1.7558
10380SOL    HW232582   3.975   6.888   2.590 -0.9841 -0.1046  2.3159
10381SOL     OW32583   5.595   6.756   2.887  0.2156 -0.2228  0.1441
10381SOL    HW132584   5.600   6.725   2.797  1.8543  1.8807 -0.5705
10381SOL    HW232585   5.594   6.676   2.940 -0.0031 -1.4906 -1.6979
10382SOL     OW32586   2.442   6.488   2.980  0.4555  0.8633 -0.3050
10382SOL    HW132587   2.422   6.427   3.051  1.0545  0.4295 -0.5039
10382SOL    HW232588   2.423   6.575   3.017  0.7910  0.6434  0.3983
10383SOL     OW32589   3.307   7.454   2.473  0.1565  0.2693 -0.2331
10383SOL    HW132590   3.213   7.453   2.453 -0.1098 -2.1465  0.7401
10383SOL    HW232591   3.348   7.406   2.401  0.5453  0.6609 -0.2775
10384SOL     OW32592   2.247   5.991   3.625 -1.1004  0.0532 -0.1652
10384SOL    HW132593   2.324   5.936   3.611  0.4094  2.4256 -2.1563
10384SOL    HW232594   2.260   6.030   3.711  0.7616  1.4722 -1.0104
10385SOL     OW32595   4.338   0.760   3.303 -0.5384  0.6468  0.6480
10385SOL    HW132596   4.430   0.788   3.305 -0.0919  0.3596 -3.9452
10385SOL    HW232597   4.335   0.683   3.360  2.9738 -1.1794 -1.2857
10386SOL     OW32598   2.980   7.210   1.690  0.0891 -0.0323  0.5499
10386SOL    HW132599   2.981   7.200   1.594  0.2719  0.4572  0.5007
10386SOL    HW232600   2.954   7.301   1.704  1.1927  0.2282  0.9479
10387SOL     OW32601   3.821   6.013   2.982  0.0419  0.0576  0.3384
10387SOL    HW132602   3.906   5.996   2.942  0.2026  1.5021  0.0110
10387SOL    HW232603   3.802   5.934   3.033  1.9462  0.0176  1.0607
10388SOL     OW32604   1.054   0.267   2.905 -0.2351  0.4912 -0.1316
10388SOL    HW132605   1.132   0.316   2.878  0.3652  0.1735  0.9782
10388SOL    HW232606   1.057   0.187   2.853  1.8796 -0.9373  2.0155
10389SOL     OW32607   4.740   0.966   4.196 -0.5971 -0.1666  0.0279
10389SOL    HW132608   4.767   0.931   4.282  1.1649  0.7757 -0.0950
10389SOL    HW232609   4.650   0.994   4.209 -0.6224 -0.7681  1.3572
10390SOL     OW32610   3.009   4.690   2.438 -0.0929  0.6047  0.1649
10390SOL    HW132611   3.056   4.763   2.478 -0.1841 -0.1987  1.8580
10390SOL    HW232612   2.995   4.629   2.511 -2.9042  0.3771 -0.4606
10391SOL     OW32613   2.811   4.908   4.514 -0.2839 -0.0774  0.2550
10391SOL    HW132614   2.830   4.858   4.593  0.6325  0.0750  0.1401
10391SOL    HW232615   2.814   4.843   4.444  1.0020  0.1197  0.0934
10392SOL     OW32616   1.837   5.210   2.548  0.4261  0.2179 -0.2815
10392SOL    HW132617   1.883   5.208   2.632  0.7591  0.2677 -0.4599
10392SOL    HW232618   1.770   5.143   2.555  0.0535  0.6419  0.2495
10393SOL     OW32619   4.314   5.913   3.266  0.0786 -0.0841 -0.1608
10393SOL    HW132620   4.311   6.003   3.234  1.9307 -0.7008 -2.3060
10393SOL    HW232621   4.230   5.875   3.239 -0.6552  0.9205  0.6396
10394SOL     OW32622   4.068   0.160   3.684 -0.6540  0.0224 -0.2503
10394SOL    HW132623   4.143   0.143   3.742 -0.1679 -0.4692 -0.9995
10394SOL    HW232624   3.992   0.136   3.736 -0.2250 -0.4138  0.1975
10395SOL     OW32625   3.185   7.826   2.236 -0.5016  0.2120 -0.0641
10395SOL    HW132626   3.271   7.838   2.276 -0.8877  0.2443  0.7863
10395SOL    HW232627   3.128   7.885   2.284 -1.2824 -0.8401  0.3373
10396SOL     OW32628   1.219   7.372   0.533  0.1017  0.2627  0.2491
10396SOL    HW132629   1.216   7.423   0.614 -0.0943 -0.7103  0.8693
10396SOL    HW232630   1.254   7.432   0.468  0.4455  1.0011  1.0996
10397SOL     OW32631   2.797   6.939   2.845 -0.7755  0.0904  0.0003
10397SOL    HW132632   2.753   7.013   2.887  1.1676 -0.1388  2.7489
10397SOL    HW232633   2.743   6.863   2.867 -0.9675  0.2700  0.1494
10398SOL     OW32634   3.749   6.174   2.330 -0.0009 -0.0238 -0.0217
10398SOL    HW132635   3.670   6.144   2.375 -0.6854  0.9381 -0.5481
10398SOL    HW232636   3.720   6.193   2.241  0.3103  2.4006  0.3295
10399SOL     OW32637   1.864   6.346   2.516  0.4627  0.7875  0.3495
10399SOL    HW132638   1.877   6.425   2.570  1.4858  0.9879 -0.1648
10399SOL    HW232639   1.951   6.306   2.512 -0.1379 -0.6231  0.9665
10400SOL     OW32640   2.898   3.962   0.920  0.4599 -0.2632 -0.0382
10400SOL    HW132641   2.906   3.887   0.861  0.4216 -0.5367  0.3016
10400SOL    HW232642   2.920   4.037   0.865 -0.6813 -0.3890 -0.7056
10401SOL     OW32643   4.402   6.172   1.995  0.3677 -0.4611  0.2475
10401SOL    HW132644   4.488   6.131   1.996  0.5536 -0.1135  2.2020
10401SOL    HW232645   4.365   6.154   2.082 -0.5189  1.4404  0.3269
10402SOL     OW32646   2.512   0.345   2.051  0.1846 -0.6378  0.3832
10402SOL    HW132647   2.594   0.314   2.013  0.1442 -0.7053  0.3523
10402SOL    HW232648   2.483   0.415   1.991 -0.2063 -1.1732 -0.0616
10403SOL     OW32649   5.338   6.898   2.459  0.5650  0.0233 -0.0979
10403SOL    HW132650   5.279   6.946   2.401  0.5343  0.7920  0.5507
10403SOL    HW232651   5.347   6.811   2.419 -0.8830 -0.0599 -0.2904
10404SOL     OW32652   3.031   6.153   0.098  0.5496  0.6868 -0.5054
10404SOL    HW132653   3.036   6.183   0.007  1.9067 -0.1485 -0.7350
10404SOL    HW232654   3.122   6.145   0.125  0.2635 -1.8917 -0.0497
10405SOL     OW32655   3.606   5.856   1.476 -0.3406 -0.4044 -0.1239
10405SOL    HW132656   3.548   5.810   1.416  0.0446 -1.6307  0.4212
10405SOL    HW232657   3.656   5.915   1.420  1.1593 -2.6661 -1.2946
10406SOL     OW32658   2.267   6.032   4.245  0.4423  0.3110 -0.3632
10406SOL    HW132659   2.204   6.020   4.316  2.1328  0.1407  1.1839
10406SOL    HW232660   2.270   6.127   4.231  1.1062  0.4857  0.8052
10407SOL     OW32661   2.871   7.329   2.833 -0.0817 -0.8101 -0.6854
10407SOL    HW132662   2.782   7.361   2.829  0.6825  1.3576 -1.8268
10407SOL    HW232663   2.896   7.337   2.925 -1.3947 -2.6125 -0.1136
10408SOL     OW32664   2.201   5.363   2.253 -0.2808 -0.5492 -0.4953
10408SOL    HW132665   2.251   5.339   2.331 -0.8172 -2.2726 -0.6368
10408SOL    HW232666   2.115   5.323   2.266 -0.2519 -1.2480 -2.1611
10409SOL     OW32667   3.140   4.867   2.594 -0.1619 -0.3844 -0.4188
10409SOL    HW132668   3.224   4.823   2.581 -0.2968 -0.8333  0.1653
10409SOL    HW232669   3.102   4.824   2.670 -0.4521  0.5313 -0.0315
10410SOL     OW32670   4.766   5.936   2.076  0.3555  0.5635 -0.1264
10410SOL    HW132671   4.681   5.928   2.034  0.7265 -0.0455 -0.7891
10410SOL    HW232672   4.801   5.847   2.077  0.8164  0.7432  0.4985
10411SOL     OW32673   4.965   4.813   3.534 -0.0504  0.5555 -0.1147
10411SOL    HW132674   4.912   4.738   3.507  3.0663 -1.1046 -2.0978
10411SOL    HW232675   4.935   4.885   3.478  0.0813 -0.4706 -1.5536
10412SOL     OW32676   2.711   7.272   2.299  0.3301  0.0486 -0.0794
10412SOL    HW132677   2.804   7.267   2.318  0.2937 -1.1370 -0.1237
10412SOL    HW232678   2.702   7.231   2.213 -0.2245  0.1814 -0.0866
10413SOL     OW32679   1.110   7.468   2.102  0.2769 -0.0599 -0.4932
10413SOL    HW132680   1.047   7.540   2.110 -0.0712 -0.3683 -0.4474
10413SOL    HW232681   1.196   7.510   2.112  0.1922  0.6557 -2.2586
10414SOL     OW32682   5.562   0.511   1.448  0.3412  0.2997 -0.0220
10414SOL    HW132683   5.469   0.532   1.439  0.4192  0.3842 -0.6723
10414SOL    HW232684   5.591   0.564   1.523 -0.3154 -0.3651  0.7282
10415SOL     OW32685   5.250   6.222   2.923  0.3720 -0.0648 -0.2709
10415SOL    HW132686   5.159   6.206   2.951  0.3414 -1.9813 -1.3038
10415SOL    HW232687   5.243   6.292   2.859 -0.2891  0.3010  0.1836
10416SOL     OW32688   1.950   7.640   3.064 -0.0433  0.1311 -0.1750
10416SOL    HW132689   1.893   7.583   3.012  0.1362 -0.1323 -0.0860
10416SOL    HW232690   2.039   7.613   3.040  0.0421  0.1326  0.1268
10417SOL     OW32691   4.468   6.176   4.258 -0.2694  0.2065  0.5490
10417SOL    HW132692   4.528   6.250   4.250 -0.2533  0.3892  2.0356
10417SOL    HW232693   4.489   6.138   4.344 -0.6096 -1.2185  0.0192
10418SOL     OW32694   4.280   7.887   5.182  0.1221  0.3613  0.0199
10418SOL    HW132695   4.362   7.926   5.214  0.2832 -0.3120  0.4448
10418SOL    HW232696   4.305   7.838   5.104  0.0863  0.3416  0.0208
10419SOL     OW32697   3.635   0.780   2.098  0.3160  0.0739  0.2880
10419SOL    HW132698   3.598   0.747   2.180  1.3306 -1.6068  0.1139
10419SOL    HW232699   3.569   0.759   2.032 -0.7224  1.8570  0.6678
10420SOL     OW32700   4.231   1.299   1.772 -0.4115 -0.9804  0.5716
10420SOL    HW132701   4.215   1.340   1.687 -0.3236  0.2021  1.1044
10420SOL    HW232702   4.274   1.216   1.752 -0.4773 -0.7526 -0.5345
10421SOL     OW32703   4.290   6.982   2.017 -0.3093 -1.3443  0.3323
10421SOL    HW132704   4.367   7.027   1.983 -0.3894 -1.1671  0.3849
10421SOL    HW232705   4.228   6.982   1.945 -1.0099  0.2650  0.8996
10422SOL     OW32706   3.515   6.874   3.591  0.2260 -0.1633  0.2755
10422SOL    HW132707   3.448   6.811   3.618 -1.1103  0.0508 -2.2365
10422SOL    HW232708   3.518   6.867   3.495  2.8282  0.8530  0.1981
10423SOL     OW32709   5.577   6.497   3.953 -0.1989 -0.0774  0.4061
10423SOL    HW132710   5.526   6.439   4.009 -1.8372 -0.6272 -1.5478
10423SOL    HW232711   5.517   6.567   3.930  0.7397  0.6452  0.0682
10424SOL     OW32712   1.634   7.677   0.201  0.2658  0.0349 -0.7085
10424SOL    HW132713   1.687   7.706   0.127 -0.0184 -0.1660 -0.9926
10424SOL    HW232714   1.579   7.607   0.166 -2.1849  2.0681 -1.1464
10425SOL     OW32715   1.254   5.563   2.663 -0.2421 -0.8225 -0.0991
10425SOL    HW132716   1.272   5.494   2.599  0.5985 -1.9664  1.3105
10425SOL    HW232717   1.340   5.583   2.702 -0.7930 -0.4864  0.9976
10426SOL     OW32718   4.104   7.821   1.940  0.4197  0.3913  0.0691
10426SOL    HW132719   4.178   7.876   1.916 -0.7810  3.0638  1.9674
10426SOL    HW232720   4.035   7.844   1.878  0.3323 -0.0140  0.0138
10427SOL     OW32721   2.578   7.843   2.208 -0.0880 -0.2788 -0.0003
10427SOL    HW132722   2.596   7.873   2.120  0.0751 -1.4852 -0.4041
10427SOL    HW232723   2.483   7.849   2.218 -0.1217 -0.2972 -0.3243
10428SOL     OW32724   1.079   5.740   2.523 -0.3366  0.2828  0.6832
10428SOL    HW132725   1.164   5.729   2.565 -0.1627  1.4453  0.6805
10428SOL    HW232726   1.020   5.764   2.595  0.1011  2.9558  0.2556
10429SOL     OW32727   2.025   7.797   2.821  0.4631 -0.3177 -0.5145
10429SOL    HW132728   2.120   7.803   2.829  0.2656  0.9857  1.5771
10429SOL    HW232729   1.997   7.763   2.906 -1.0729  1.2398 -0.3623
10430SOL     OW32730   0.917   7.956   0.666  0.3396 -0.0286  0.0993
10430SOL    HW132731   0.901   7.961   0.760 -1.2345  0.9803 -0.1749
10430SOL    HW232732   0.830   7.966   0.627  1.2267  2.1627 -1.4965
10431SOL     OW32733   5.271   0.351   4.650  0.0861 -0.3715  0.2351
10431SOL    HW132734   5.305   0.282   4.707 -1.5233 -0.9408  0.5478
10431SOL    HW232735   5.221   0.304   4.583 -1.5893  0.4957  0.8324
10432SOL     OW32736   3.690   7.329   3.020 -0.2042  0.5179  0.8832
10432SOL    HW132737   3.670   7.422   3.030  1.6492  0.9309  1.0384
10432SOL    HW232738   3.650   7.305   2.936  1.4120  2.1064 -0.4178
10433SOL     OW32739   2.327   0.387   1.737 -0.2186 -0.7290  0.4711
10433SOL    HW132740   2.293   0.349   1.656  0.8709  1.6092 -1.1762
10433SOL    HW232741   2.403   0.332   1.758 -0.8676 -1.7298  0.2954
10434SOL     OW32742   2.365   5.405   3.277  0.3270  0.2772 -0.1567
10434SOL    HW132743   2.392   5.421   3.187 -0.4694  0.6709 -0.3394
10434SOL    HW232744   2.445   5.412   3.328  0.6179  1.0943 -0.7132
10435SOL     OW32745   5.042   1.231   4.905 -0.3507 -0.3515 -0.3670
10435SOL    HW132746   5.108   1.299   4.920 -0.6015 -0.1666 -0.1035
10435SOL    HW232747   4.966   1.278   4.872 -0.8417 -0.3890  0.6899
10436SOL     OW32748   4.348   6.957   3.602 -0.3213  0.2926 -0.6342
10436SOL    HW132749   4.436   6.921   3.588 -0.3492  0.9569 -3.1527
10436SOL    HW232750   4.314   6.969   3.513 -3.4352 -1.0246  0.2609
10437SOL     OW32751   2.095   5.503   2.002  0.3010  0.2807 -0.0001
10437SOL    HW132752   2.001   5.507   2.022  0.2404  1.5561 -0.4310
10437SOL    HW232753   2.138   5.516   2.086  0.1084 -1.0589  0.3215
10438SOL     OW32754   2.937   5.659   2.841  0.2452  0.1489 -0.1871
10438SOL    HW132755   2.940   5.754   2.853 -1.1801  0.0978  0.7517
10438SOL    HW232756   2.974   5.624   2.922 -0.1350 -0.0895 -0.1131
10439SOL     OW32757   5.480   0.625   3.509 -0.2625 -0.4875  0.0581
10439SOL    HW132758   5.418   0.630   3.437 -0.5025 -2.6843  0.0191
10439SOL    HW232759   5.566   0.618   3.467  0.0824  2.3718  0.1098
10440SOL     OW32760   4.833   6.959   2.904  0.1446 -0.5221  0.1544
10440SOL    HW132761   4.858   6.957   2.812 -0.1435  1.0788  0.0085
10440SOL    HW232762   4.909   6.997   2.949 -0.5624  0.8857  0.2203
10441SOL     OW32763   2.278   6.467   1.195 -0.2754  0.4845 -0.0138
10441SOL    HW132764   2.346   6.526   1.229 -0.7967  1.6728 -0.9623
10441SOL    HW232765   2.236   6.431   1.273  0.9881  0.2601  0.5860
10442SOL     OW32766   1.847   7.202   3.583 -0.4553 -0.3966 -0.1514
10442SOL    HW132767   1.807   7.227   3.500 -1.1681  1.5280  0.6895
10442SOL    HW232768   1.774   7.206   3.646 -0.3802 -3.6969  0.3315
10443SOL     OW32769   3.564   6.460   3.748 -0.5579 -0.1295 -0.1640
10443SOL    HW132770   3.472   6.445   3.767 -0.5727 -0.2793 -0.3525
10443SOL    HW232771   3.565   6.491   3.657 -0.4992  0.6900  0.1085
10444SOL     OW32772   4.333   7.184   2.550  0.1580  0.1934  0.4514
10444SOL    HW132773   4.259   7.244   2.558  2.0094  2.6675  0.2299
10444SOL    HW232774   4.322   7.142   2.464  0.6991  3.1206 -1.1771
10445SOL     OW32775   1.262   5.361   3.096  0.6187 -0.4366  0.2223
10445SOL    HW132776   1.213   5.289   3.057 -0.4271 -0.3691  1.3630
10445SOL    HW232777   1.306   5.323   3.172 -0.1654  0.1748  0.9960
10446SOL     OW32778   3.230   7.194   2.702  0.0590  0.5230  0.0505
10446SOL    HW132779   3.292   7.164   2.637  0.2893 -0.5183  0.7371
10446SOL    HW232780   3.148   7.151   2.680 -0.6237  2.3097 -1.1817
10447SOL     OW32781   1.881   6.338   3.437 -0.0754  0.2907 -0.3895
10447SOL    HW132782   1.862   6.264   3.494 -0.6936  0.1263 -0.7998
10447SOL    HW232783   1.845   6.313   3.352  0.7377  0.5820 -0.8246
10448SOL     OW32784   3.339   7.568   4.002 -0.6767  0.2154 -0.0341
10448SOL    HW132785   3.283   7.494   4.029  0.6410 -0.5677  0.6519
10448SOL    HW232786   3.286   7.645   4.020 -1.2693 -0.4681  1.3185
10449SOL     OW32787   5.466   0.373   2.281 -0.3268 -0.5239 -0.2470
10449SOL    HW132788   5.515   0.413   2.353  0.9954 -1.5169 -0.5538
10449SOL    HW232789   5.460   0.442   2.215 -0.3911 -0.0235  0.2716
10450SOL     OW32790   3.182   6.993   3.732  0.5460 -0.2676  0.0289
10450SOL    HW132791   3.245   7.059   3.702 -0.0100  0.5434  0.6081
10450SOL    HW232792   3.181   6.928   3.661  1.9529 -0.2629 -0.0389
10451SOL     OW32793   3.863   6.637   2.907  0.3864  0.1876 -0.1798
10451SOL    HW132794   3.770   6.659   2.897  0.4072 -0.1072 -1.1244
10451SOL    HW232795   3.899   6.709   2.959 -0.9649 -1.1824  2.9329
10452SOL     OW32796   1.771   7.264   2.255  0.6849  0.1981 -0.0785
10452SOL    HW132797   1.690   7.265   2.202  0.6533  0.7523 -0.0260
10452SOL    HW232798   1.788   7.172   2.271  0.7137  0.0144 -1.0975
10453SOL     OW32799   3.616   6.758   1.506  0.5632 -0.0723 -0.0050
10453SOL    HW132800   3.697   6.797   1.538  0.6468 -0.0924 -0.1877
10453SOL    HW232801   3.553   6.772   1.576  0.1357  1.8794 -0.7005
10454SOL     OW32802   3.067   7.987   1.872  0.0380  0.4581 -0.4529
10454SOL    HW132803   2.984   7.952   1.906  1.8501 -0.8567  3.1563
10454SOL    HW232804   3.081   8.069   1.919  1.9811 -0.6966  1.1498
10455SOL     OW32805   2.813   6.624   1.499 -0.1586  0.4908 -0.1779
10455SOL    HW132806   2.899   6.668   1.506 -0.4255  0.7824  2.3222
10455SOL    HW232807   2.804   6.578   1.582 -2.4778  0.5585 -0.3454
10456SOL     OW32808   4.427   7.852   3.555  0.3984  0.5371  0.4639
10456SOL    HW132809   4.475   7.843   3.637  1.4958 -0.3244 -0.2451
10456SOL    HW232810   4.464   7.931   3.515 -1.3106  1.9524  1.5152
10457SOL     OW32811   4.889   6.780   3.494 -0.1314  0.1090  0.8197
10457SOL    HW132812   4.925   6.821   3.573  0.6346 -0.5892  0.8427
10457SOL    HW232813   4.952   6.801   3.425 -0.1018 -0.4222  0.6815
10458SOL     OW32814   1.443   0.148   3.405  0.8889  0.1353 -0.8936
10458SOL    HW132815   1.489   0.067   3.381  0.8078  0.0463 -0.7542
10458SOL    HW232816   1.422   0.189   3.321  1.8495  0.5340 -0.9441
10459SOL     OW32817   0.816   6.453   3.847  0.5432 -0.5653 -0.1551
10459SOL    HW132818   0.854   6.476   3.931  0.6344  1.9806 -0.8019
10459SOL    HW232819   0.833   6.359   3.837  3.4806 -0.2695  1.1570
10460SOL     OW32820   1.947   6.273   1.415 -0.4972 -0.0883 -0.0189
10460SOL    HW132821   1.893   6.200   1.383 -2.1922  1.1440 -0.0680
10460SOL    HW232822   1.972   6.320   1.336  3.9652 -2.6529 -0.4893
10461SOL     OW32823   3.882   7.527   2.783  0.1017 -0.4618 -1.0126
10461SOL    HW132824   3.899   7.480   2.701 -0.2150  0.0699 -1.3996
10461SOL    HW232825   3.959   7.512   2.837  0.7360 -0.0649 -1.7788
10462SOL     OW32826   1.919   6.483   2.746 -0.0601 -0.1456 -0.6618
10462SOL    HW132827   2.005   6.460   2.780  0.5368  1.5322 -0.9797
10462SOL    HW232828   1.858   6.435   2.803  1.0386 -0.6149  0.1618
10463SOL     OW32829   2.489   6.125   2.334 -0.3108 -0.4966  0.0080
10463SOL    HW132830   2.488   6.044   2.281 -3.2840 -0.1532 -0.6393
10463SOL    HW232831   2.453   6.192   2.275 -0.8619  0.5805  1.5174
10464SOL     OW32832   1.956   0.146   2.712  0.0055  0.0570 -0.3676
10464SOL    HW132833   1.908   0.209   2.767 -2.2898 -2.3998  0.6454
10464SOL    HW232834   2.038   0.131   2.760 -0.8692 -0.1606  1.1347
10465SOL     OW32835   4.797   6.632   3.010 -0.4713 -0.4012 -0.2467
10465SOL    HW132836   4.798   6.566   3.079 -0.3063 -1.5378 -1.2947
10465SOL    HW232837   4.868   6.606   2.950 -0.4329  0.7011 -0.7199
10466SOL     OW32838   4.387   0.329   2.363 -0.2569 -0.2959  0.0335
10466SOL    HW132839   4.391   0.397   2.431 -0.4026  0.9722 -1.1810
10466SOL    HW232840   4.302   0.287   2.377 -0.3153  0.0009  0.6007
10467SOL     OW32841   3.140   5.921   4.759 -0.4302  0.3706 -0.0049
10467SOL    HW132842   3.067   5.927   4.697  0.4499  0.8093 -1.0454
10467SOL    HW232843   3.114   5.979   4.831 -2.1845 -1.3691  0.8604
10468SOL     OW32844   3.828   5.712   3.011  0.5854 -0.0751 -0.3171
10468SOL    HW132845   3.849   5.625   2.978 -1.1520 -0.6526 -0.0542
10468SOL    HW232846   3.789   5.757   2.937  0.5671  0.1211 -0.1894
10469SOL     OW32847   3.762   7.935   3.984  0.1210  0.2862 -0.2119
10469SOL    HW132848   3.811   7.939   3.901  0.3172  2.0360 -0.0546
10469SOL    HW232849   3.788   7.852   4.023 -0.3909 -0.8627 -2.1375
10470SOL     OW32850   2.723   7.332   1.042 -0.9065  0.3416 -0.6604
10470SOL    HW132851   2.671   7.254   1.063 -0.8797  0.3202 -0.6714
10470SOL    HW232852   2.812   7.308   1.068 -0.7574  0.0818 -1.3694
10471SOL     OW32853   1.885   5.789   2.110 -0.3120 -0.0067 -0.1032
10471SOL    HW132854   1.881   5.822   2.199 -0.4588 -0.7071  0.1518
10471SOL    HW232855   1.871   5.695   2.118 -0.5126 -0.0498 -0.8815
10472SOL     OW32856   4.569   6.331   3.585 -0.1016  0.2511 -0.0714
10472SOL    HW132857   4.588   6.424   3.570  0.0926  0.1308 -0.5838
10472SOL    HW232858   4.477   6.330   3.612 -0.0613  0.6061  0.0965
10473SOL     OW32859   3.318   6.641   2.997 -0.0049 -0.5319 -0.3082
10473SOL    HW132860   3.252   6.707   3.021 -1.5670 -2.0108 -0.3128
10473SOL    HW232861   3.320   6.581   3.071  1.0321 -0.7605 -0.5092
10474SOL     OW32862   5.557   5.950   4.858  0.5133  0.2087 -0.0803
10474SOL    HW132863   5.591   6.023   4.807 -1.6619  1.4404  0.1110
10474SOL    HW232864   5.546   5.986   4.946 -1.6054  0.0384 -0.2380
10475SOL     OW32865   3.532   0.085   2.133  0.0914 -0.5885 -0.4807
10475SOL    HW132866   3.524  -0.006   2.103  1.0663 -0.8489  0.0083
10475SOL    HW232867   3.514   0.137   2.055 -0.6934 -1.1949 -0.7189
10476SOL     OW32868   2.254   5.981   2.520  0.2872  0.9793 -0.2764
10476SOL    HW132869   2.230   5.978   2.427 -0.2673  1.2632 -0.1446
10476SOL    HW232870   2.334   5.929   2.525  0.0622  0.5627 -0.8361
10477SOL     OW32871   1.467   0.242   2.665  0.4701 -0.4594  0.4240
10477SOL    HW132872   1.552   0.261   2.627  1.4758 -2.0523  1.7232
10477SOL    HW232873   1.425   0.184   2.601  0.7923 -0.5138  0.2588
10478SOL     OW32874   5.707   5.702   2.417 -0.1466 -0.3137  0.4853
10478SOL    HW132875   5.740   5.787   2.387  0.5723 -0.9116 -0.4465
10478SOL    HW232876   5.747   5.690   2.503  0.1132  0.0865  0.4229
10479SOL     OW32877   1.621   7.502   2.630  0.0808  0.8470  0.4170
10479SOL    HW132878   1.616   7.596   2.648  0.0399  0.6615  1.4494
10479SOL    HW232879   1.678   7.468   2.699  0.9344  0.2608 -0.5570
10480SOL     OW32880   3.309   7.635   2.845 -1.2520  0.4768 -0.4041
10480SOL    HW132881   3.244   7.574   2.810 -0.6744 -0.8616  0.7714
10480SOL    HW232882   3.310   7.618   2.939  0.6725  0.5681 -0.3618
10481SOL     OW32883   3.961   6.120   1.393  0.3722 -0.3053  0.2677
10481SOL    HW132884   4.021   6.170   1.449  0.6900 -1.0925  0.6432
10481SOL    HW232885   3.876   6.160   1.409  0.6353  0.1951  0.4691
10482SOL     OW32886   5.302   6.813   4.641 -0.2525  0.0476  0.3428
10482SOL    HW132887   5.318   6.724   4.672 -1.7102 -0.2755  0.2756
10482SOL    HW232888   5.383   6.860   4.658  0.7799 -1.4493 -0.2315
10483SOL     OW32889   1.117   5.932   3.779  0.5051 -0.0089 -0.1697
10483SOL    HW132890   1.135   6.015   3.824  1.7331  0.3261 -1.1901
10483SOL    HW232891   1.029   5.907   3.807  0.6873  0.8925  1.2792
10484SOL     OW32892   2.736   0.190   2.637 -0.6550  0.2578 -0.1575
10484SOL    HW132893   2.705   0.184   2.728 -1.2239 -1.0921 -0.3978
10484SOL    HW232894   2.831   0.186   2.644 -0.7089 -1.6467  0.3430
10485SOL     OW32895   2.449   6.341   2.737  0.5856 -0.0825  0.4550
10485SOL    HW132896   2.431   6.407   2.804 -0.8790 -1.1965  1.2146
10485SOL    HW232897   2.434   6.257   2.781 -1.2045 -0.8390 -1.4427
10486SOL     OW32898   3.140   5.836   4.351  0.8917  0.5638  0.3631
10486SOL    HW132899   3.194   5.915   4.349  0.1064  1.0942 -0.9175
10486SOL    HW232900   3.054   5.866   4.377  0.2837  0.3690 -1.2779
10487SOL     OW32901   4.981   0.850   2.122 -0.3756  0.0922 -0.2399
10487SOL    HW132902   5.075   0.868   2.112 -0.8585  2.5560 -0.8544
10487SOL    HW232903   4.940   0.894   2.048 -1.9620 -2.0224 -0.6933
10488SOL     OW32904   0.981   7.103   1.834 -0.3892 -0.7316 -0.2774
10488SOL    HW132905   0.990   7.054   1.753 -1.3722  0.7578 -1.3473
10488SOL    HW232906   1.071   7.130   1.855 -0.1600 -0.8826 -1.0316
10489SOL     OW32907   1.741   7.350   3.387  0.3396  0.5694 -0.4945
10489SOL    HW132908   1.815   7.410   3.377 -1.4937  3.0101 -0.6627
10489SOL    HW232909   1.667   7.399   3.351 -1.5909 -1.2117  0.8365
10490SOL     OW32910   5.023   7.339   2.190  0.1569 -0.0192  0.3888
10490SOL    HW132911   5.092   7.398   2.159  0.0546 -0.0421  0.1120
10490SOL    HW232912   5.023   7.267   2.127 -0.4963  0.2538  0.0590
10491SOL     OW32913   2.428   6.764   3.112 -0.1606  0.9892 -0.0104
10491SOL    HW132914   2.472   6.796   3.190 -2.2286  3.2920  0.3498
10491SOL    HW232915   2.391   6.843   3.071 -1.2830 -0.4359 -1.9251
10492SOL     OW32916   4.837   7.767   2.972 -0.1695 -0.1636  0.2024
10492SOL    HW132917   4.908   7.717   3.011 -0.7862 -0.6890  0.6633
10492SOL    HW232918   4.859   7.859   2.991  1.2088 -0.1991 -1.0542
10493SOL     OW32919   1.617   7.698   2.974 -0.6137  0.1807 -0.5018
10493SOL    HW132920   1.526   7.670   2.966 -0.1932 -1.0929 -1.2066
10493SOL    HW232921   1.668   7.617   2.969  0.4795  0.5229  2.6620
10494SOL     OW32922   2.914   5.995   2.592 -0.1768 -0.3457  0.0536
10494SOL    HW132923   2.999   5.989   2.548  0.3022  1.5361  0.6355
10494SOL    HW232924   2.856   6.037   2.529 -0.1456  0.1575  0.3609
10495SOL     OW32925   3.374   6.469   3.189  0.4903 -0.5045  0.7688
10495SOL    HW132926   3.397   6.531   3.258 -1.5095 -0.5090  1.5048
10495SOL    HW232927   3.338   6.393   3.236 -1.8796 -0.1014 -0.2257
10496SOL     OW32928   2.709   4.980   2.946  0.0859  0.2407 -0.0294
10496SOL    HW132929   2.752   5.064   2.964  1.8581 -0.5921 -0.1405
10496SOL    HW232930   2.631   4.980   3.002 -0.6187  2.4432 -0.9206
10497SOL     OW32931   1.331   6.723   2.104  0.2331 -0.4720 -0.3155
10497SOL    HW132932   1.263   6.742   2.040 -0.3066  1.3271  0.7293
10497SOL    HW232933   1.409   6.705   2.051 -1.1836 -3.7826 -1.5888
10498SOL     OW32934   1.391   7.087   3.010  0.2768  0.1306 -0.2936
10498SOL    HW132935   1.417   7.177   2.989  1.4123  0.4233  2.0910
10498SOL    HW232936   1.306   7.097   3.053  1.1539  0.2986  1.4904
10499SOL     OW32937   2.735   6.176   3.086 -0.2336  0.5795 -0.3679
10499SOL    HW132938   2.768   6.172   3.176  2.6200 -0.2435 -1.3610
10499SOL    HW232939   2.762   6.263   3.055  0.7236  0.0411 -1.0796
10500SOL     OW32940   2.160   6.317   1.602  0.1712  0.3688 -0.3011
10500SOL    HW132941   2.205   6.393   1.564  0.7340  0.4088  0.4021
10500SOL    HW232942   2.076   6.313   1.557  0.4024  1.0191 -0.8080
10501SOL     OW32943   3.581   5.280   4.279 -0.3682 -0.1230 -0.3423
10501SOL    HW132944   3.602   5.202   4.228 -0.1107 -1.3639  1.5556
10501SOL    HW232945   3.659   5.295   4.333 -1.6083 -0.4917  1.6309
10502SOL     OW32946   0.691   4.525   3.179 -0.4214  0.2070 -0.3435
10502SOL    HW132947   0.678   4.464   3.252  0.3859 -0.5168 -0.7871
10502SOL    HW232948   0.608   4.522   3.131 -0.9094  0.5836  0.4497
10503SOL     OW32949   0.566   6.636   2.197  0.4315 -0.3903 -0.0856
10503SOL    HW132950   0.561   6.725   2.162 -0.5949  0.2176  1.4939
10503SOL    HW232951   0.478   6.601   2.184  0.5170 -0.7589  0.3372
10504SOL     OW32952   3.153   4.789   2.853  0.0165  0.0396 -0.3901
10504SOL    HW132953   3.202   4.867   2.880 -1.9715  0.3949  2.7032
10504SOL    HW232954   3.216   4.717   2.863  1.0683  0.8990 -0.5983
10505SOL     OW32955   2.764   5.696   3.846 -0.3924 -0.2703  0.1137
10505SOL    HW132956   2.768   5.745   3.929 -0.3941  0.4538 -0.3073
10505SOL    HW232957   2.844   5.644   3.845 -0.7822 -0.9159  0.9487
10506SOL     OW32958   5.411   7.563   3.201  0.0638 -0.7524 -0.5670
10506SOL    HW132959   5.471   7.495   3.171 -0.3764 -1.2378 -0.3563
10506SOL    HW232960   5.466   7.622   3.252  0.6898 -0.2762 -1.7505
10507SOL     OW32961   5.138   7.357   3.819  0.5181 -0.2033 -0.8811
10507SOL    HW132962   5.094   7.425   3.768 -0.7380 -0.4821 -0.2140
10507SOL    HW232963   5.069   7.292   3.835  1.1240 -0.5435  0.3941
10508SOL     OW32964   3.913   7.398   2.554  1.1669 -0.0032  0.1781
10508SOL    HW132965   3.845   7.458   2.525 -0.2288 -1.6509 -0.1230
10508SOL    HW232966   3.911   7.327   2.490  0.4194 -2.0146  2.2656
10509SOL     OW32967   3.126   6.144   3.103  0.0857 -0.2998  0.4471
10509SOL    HW132968   3.096   6.213   3.044  1.4858  1.3437  1.5775
10509SOL    HW232969   3.206   6.110   3.062  0.2224 -0.2035  0.6314
10510SOL     OW32970   3.273   5.902   0.660  0.1223 -0.2248 -0.2765
10510SOL    HW132971   3.181   5.881   0.643 -0.2638 -0.2743  1.6496
10510SOL    HW232972   3.286   5.988   0.621 -1.4295  0.8291  1.3525
10511SOL     OW32973   3.476   6.830   3.331  0.2152  0.7056 -0.3015
10511SOL    HW132974   3.559   6.822   3.285 -0.9531 -0.6043 -2.3592
10511SOL    HW232975   3.436   6.909   3.295 -0.2749  0.2158 -0.8672
10512SOL     OW32976   5.366   6.993   3.517  0.5676 -0.6052  0.5495
10512SOL    HW132977   5.369   6.993   3.421 -0.4527  1.6376  0.4619
10512SOL    HW232978   5.316   7.071   3.540  1.0677 -0.8971  2.9406
10513SOL     OW32979   2.420   5.369   2.505  0.4663 -0.0104  0.2967
10513SOL    HW132980   2.374   5.448   2.533  0.1824 -0.5412  1.3994
10513SOL    HW232981   2.513   5.391   2.514  0.4336  0.7793 -1.1248
10514SOL     OW32982   1.483   7.792   2.345  0.1083 -0.4315  0.0919
10514SOL    HW132983   1.573   7.787   2.314 -0.0432 -0.2376 -0.3769
10514SOL    HW232984   1.435   7.727   2.293 -0.7604  1.9001 -2.2187
10515SOL     OW32985   1.308   7.036   2.132  0.3854 -0.6451  0.1149
10515SOL    HW132986   1.214   7.048   2.140  0.7244  1.8297  1.9402
10515SOL    HW232987   1.327   6.958   2.184 -0.5398 -0.2992  1.0113
10516SOL     OW32988   2.622   6.143   2.574 -0.4893  0.7251 -0.2453
10516SOL    HW132989   2.549   6.104   2.526 -0.7840  0.0495  0.7232
10516SOL    HW232990   2.581   6.209   2.630 -0.5284 -0.3507  1.0562
10517SOL     OW32991   5.383   7.951   1.705 -0.5562 -0.2732  0.6254
10517SOL    HW132992   5.387   8.023   1.641  0.0765 -1.2445 -0.4550
10517SOL    HW232993   5.397   7.994   1.789 -0.7075  0.9452  0.0540
10518SOL     OW32994   3.337   6.320   3.675  0.0601 -0.5458  0.3149
10518SOL    HW132995   3.410   6.275   3.632  1.8166  0.7317  1.8305
10518SOL    HW232996   3.301   6.255   3.735  0.9637 -0.7369  0.6691
10519SOL     OW32997   2.001   6.425   1.135 -0.3679 -0.1839  0.2422
10519SOL    HW132998   1.940   6.476   1.081  0.3570 -0.2711 -0.6770
10519SOL    HW232999   2.085   6.469   1.124  0.0918 -1.0673  0.1259
10520SOL     OW33000   2.509   7.184   3.674 -0.0806  0.4014  0.5143
10520SOL    HW133001   2.514   7.277   3.651  0.2491 -0.0776 -1.5608
10520SOL    HW233002   2.593   7.165   3.716  1.7051  0.1670 -2.8537
10521SOL     OW33003   4.263   7.478   2.294 -0.3147  0.0498  0.4258
10521SOL    HW133004   4.209   7.531   2.236  0.8872  0.3443 -0.4525
10521SOL    HW233005   4.291   7.404   2.240 -0.4380 -0.4984  1.0932
10522SOL     OW33006   1.644   6.101   3.159 -0.3089  0.0301 -0.2144
10522SOL    HW133007   1.577   6.117   3.092 -0.2027  1.1993 -0.0633
10522SOL    HW233008   1.596   6.102   3.242  0.0343  2.1869  0.0108
10523SOL     OW33009   3.457   1.121   3.623  0.7356 -0.7485 -0.4446
10523SOL    HW133010   3.378   1.121   3.677  1.6266 -1.9135  0.9120
10523SOL    HW233011   3.424   1.114   3.533 -0.6986 -1.1721  0.0861
10524SOL     OW33012   2.595   5.019   2.660 -0.7339  0.1226 -0.4188
10524SOL    HW133013   2.577   4.948   2.722 -2.1556 -0.6475 -1.6588
10524SOL    HW233014   2.546   5.094   2.696 -0.9253 -0.1045 -0.1970
10525SOL     OW33015   2.215   7.527   2.271  0.0698 -0.7959 -0.3364
10525SOL    HW133016   2.147   7.479   2.317  0.7877 -0.8964  0.6429
10525SOL    HW233017   2.280   7.547   2.338 -1.2808  3.7128 -0.0438
10526SOL     OW33018   2.695   6.347   2.328 -0.0579 -0.4360 -0.4248
10526SOL    HW133019   2.634   6.274   2.319  0.2314 -0.8240  0.5539
10526SOL    HW233020   2.639   6.425   2.334 -0.5032 -0.8368  0.9649
10527SOL     OW33021   4.526   7.600   2.789  0.3640  0.6425  0.0335
10527SOL    HW133022   4.591   7.565   2.728  0.6230  2.4417 -0.7829
10527SOL    HW233023   4.442   7.585   2.746 -0.0297 -2.8269  1.6343
10528SOL     OW33024   3.206   6.638   2.742 -0.0251  0.4523 -0.2188
10528SOL    HW133025   3.247   6.701   2.682  0.7276  0.6665  0.4921
10528SOL    HW233026   3.252   6.653   2.825  1.0208 -1.8605 -0.3172
10529SOL     OW33027   1.708   7.530   4.430  0.0370  0.4494 -0.3965
10529SOL    HW133028   1.755   7.611   4.449  0.9757  0.1605 -1.3223
10529SOL    HW233029   1.777   7.468   4.406 -0.4854 -1.1565  1.9176
10530SOL     OW33030   4.293   5.356   3.705 -0.0016  0.4363 -0.1370
10530SOL    HW133031   4.206   5.365   3.666 -1.2398 -1.1954  1.9853
10530SOL    HW233032   4.303   5.261   3.719  0.6818  0.8111  2.5193
10531SOL     OW33033   5.197   6.924   2.700  0.1607 -0.4491  0.1517
10531SOL    HW133034   5.116   6.938   2.651  0.3176  1.4192  0.3826
10531SOL    HW233035   5.259   6.893   2.634  0.1577  1.3089 -0.7367
10532SOL     OW33036   4.888   5.337   2.854  0.0175  0.1398  0.2810
10532SOL    HW133037   4.802   5.312   2.887 -1.0627  0.1444 -2.3094
10532SOL    HW233038   4.950   5.285   2.905 -1.7892 -3.5435 -0.9561
10533SOL     OW33039   1.335   7.462   2.711 -0.3618  0.5612 -0.2841
10533SOL    HW133040   1.272   7.405   2.668  0.7696 -0.5568 -0.5362
10533SOL    HW233041   1.388   7.497   2.640  1.2160 -0.9190  0.0987
10534SOL     OW33042   5.512   1.123   2.033  0.9174  0.1517  0.2372
10534SOL    HW133043   5.487   1.215   2.023  2.4776  0.6482  0.6979
10534SOL    HW233044   5.500   1.104   2.126  0.6000 -0.1393  0.1452
10535SOL     OW33045   2.748   7.456   3.478 -0.1094  0.5424 -0.0669
10535SOL    HW133046   2.762   7.549   3.491 -1.0791  0.8501 -1.0007
10535SOL    HW233047   2.827   7.425   3.435 -0.0702  1.0915 -0.3995
10536SOL     OW33048   2.515   5.952   4.238 -0.1629 -0.1337 -0.0221
10536SOL    HW133049   2.555   6.018   4.295  0.8330  0.5054 -1.4294
10536SOL    HW233050   2.421   5.962   4.253 -0.0021  1.3118  0.1042
10537SOL     OW33051   1.967   7.466   3.283 -0.3871  0.2580 -0.0656
10537SOL    HW133052   1.960   7.382   3.237  2.3695 -0.0512 -0.1191
10537SOL    HW233053   1.960   7.532   3.214 -1.7116  0.0746 -0.1346
10538SOL     OW33054   2.045   6.310   5.352  0.1673  0.1875 -0.6608
10538SOL    HW133055   2.051   6.227   5.401 -1.2799 -2.0586 -3.9160
10538SOL    HW233056   2.133   6.325   5.319  1.0086  1.3767  1.8895
10539SOL     OW33057   4.794   6.219   3.611  0.5755 -0.3689  0.1658
10539SOL    HW133058   4.823   6.162   3.540  0.7789 -0.0366 -0.0201
10539SOL    HW233059   4.707   6.249   3.585  0.6541 -0.2391  0.0510
10540SOL     OW33060   4.242   0.750   4.342  0.1235  0.0025 -0.1340
10540SOL    HW133061   4.297   0.803   4.284 -0.4683  0.4851 -0.2625
10540SOL    HW233062   4.157   0.748   4.298  0.8495 -3.6628 -1.8199
10541SOL     OW33063   2.566   5.205   4.288  0.1175  0.4983  0.5111
10541SOL    HW133064   2.515   5.125   4.276  2.0982 -0.9079  0.9530
10541SOL    HW233065   2.617   5.213   4.208 -0.4925  1.6787  0.2220
10542SOL     OW33066   3.976   6.975   3.665 -0.2245  0.4657  0.1989
10542SOL    HW133067   3.974   7.050   3.725 -1.2349  0.1018  0.6340
10542SOL    HW233068   3.964   7.014   3.578  0.5906  0.9289  0.2789
10543SOL     OW33069   5.143   6.574   4.224  0.4778  0.3456 -0.4885
10543SOL    HW133070   5.092   6.597   4.301  0.4107  0.7571 -0.6569
10543SOL    HW233071   5.232   6.560   4.258  0.7519  1.8563 -0.5286
10544SOL     OW33072   4.843   0.093   3.457  0.1565 -0.0716  0.1509
10544SOL    HW133073   4.876   0.019   3.508 -0.7795  0.5855  1.7741
10544SOL    HW233074   4.801   0.150   3.521 -1.3882  0.6375 -1.3961
10545SOL     OW33075   4.161   7.095   4.330  0.4492  0.1793 -0.1468
10545SOL    HW133076   4.220   7.065   4.399  0.7663  2.2633  0.5523
10545SOL    HW233077   4.098   7.151   4.375  0.2067  0.9882 -1.4402
10546SOL     OW33078   1.541   7.136   3.273 -0.0851 -0.1157 -0.1172
10546SOL    HW133079   1.490   7.158   3.195  0.5943 -0.0757 -0.5620
10546SOL    HW233080   1.526   7.209   3.333 -1.4049 -0.6162  0.2046
10547SOL     OW33081   4.500   7.331   4.822  0.3595  0.7709 -0.1706
10547SOL    HW133082   4.446   7.335   4.743  2.0949  0.7430 -1.4120
10547SOL    HW233083   4.529   7.421   4.836 -0.7419  0.9697  1.0728
10548SOL     OW33084   1.505   5.510   3.619 -0.1712 -0.0365  0.4735
10548SOL    HW133085   1.486   5.541   3.708 -0.6820  1.6285 -0.1838
10548SOL    HW233086   1.599   5.525   3.608 -0.3817  1.2261  0.2179
10549SOL     OW33087   1.416   5.764   4.597 -0.1507 -0.1184  0.4577
10549SOL    HW133088   1.358   5.719   4.658 -1.9229  1.3684 -0.0232
10549SOL    HW233089   1.486   5.800   4.651  0.9378 -2.7399  0.9369
10550SOL     OW33090   1.729   7.352   5.219 -0.2045 -0.1247 -0.0479
10550SOL    HW133091   1.686   7.309   5.145  0.3680 -0.6883 -0.0609
10550SOL    HW233092   1.704   7.299   5.295 -0.1181 -0.0274  0.0495
10551SOL     OW33093   4.839   7.443   4.893  0.6552  0.5939 -0.4877
10551SOL    HW133094   4.858   7.383   4.821 -0.7452  0.2206 -0.5859
10551SOL    HW233095   4.803   7.521   4.850 -1.8053 -0.2837 -0.1716
10552SOL     OW33096   2.326   0.717   3.527 -0.1322  0.1940  0.4358
10552SOL    HW133097   2.360   0.740   3.614  0.5283 -0.2922  0.3086
10552SOL    HW233098   2.384   0.760   3.466  0.4097 -0.8177  0.2154
10553SOL     OW33099   4.163   6.870   4.136  0.1529  0.1096  0.5067
10553SOL    HW133100   4.158   6.938   4.204  0.4630  1.0171 -0.3607
10553SOL    HW233101   4.251   6.880   4.099  1.2231 -2.4614  2.0826
10554SOL     OW33102   4.090   7.296   5.236 -0.6186 -0.0906 -0.2846
10554SOL    HW133103   4.137   7.324   5.157  1.1415  0.1126  0.7739
10554SOL    HW233104   4.159   7.265   5.295 -1.9102 -0.4874  1.0751
10555SOL     OW33105   2.062   6.889   2.887 -0.0489  0.4084 -0.5934
10555SOL    HW133106   2.138   6.946   2.897 -0.2406  0.5150  0.4272
10555SOL    HW233107   1.994   6.931   2.940 -0.3514 -0.4968 -0.2463
10556SOL     OW33108   4.137   5.773   3.090  0.6566  0.5111 -0.4269
10556SOL    HW133109   4.106   5.684   3.111 -0.8763  1.4540  1.6130
10556SOL    HW233110   4.112   5.786   2.998  2.5333 -1.7684 -1.3717
10557SOL     OW33111   3.225   7.333   3.143 -0.1343  0.0570  0.5662
10557SOL    HW133112   3.250   7.424   3.128 -0.0566  0.1478  1.2238
10557SOL    HW233113   3.269   7.309   3.225  2.3723 -1.5285 -1.1135
10558SOL     OW33114   4.580   7.273   4.523  0.3099 -0.3060 -0.5527
10558SOL    HW133115   4.654   7.215   4.504  0.0105 -0.0482 -2.7125
10558SOL    HW233116   4.610   7.360   4.495 -0.1709  0.1299  0.2523
10559SOL     OW33117   7.990   6.590   3.213 -0.2298 -0.5224 -0.3634
10559SOL    HW133118   7.933   6.533   3.161 -0.0918 -1.0852  0.0893
10559SOL    HW233119   7.949   6.592   3.300 -0.3025  0.1765 -0.4094
10560SOL     OW33120   4.426   0.005   4.634  0.9469  0.3053 -0.3266
10560SOL    HW133121   4.408  -0.088   4.648  1.5897  0.2779  0.3903
10560SOL    HW233122   4.398   0.047   4.715  2.0692  0.5277 -0.0345
10561SOL     OW33123   4.697   6.590   2.320  0.4058 -0.1265  0.2937
10561SOL    HW133124   4.785   6.570   2.353  1.1474  2.0561 -0.2055
10561SOL    HW233125   4.673   6.672   2.363 -0.8076  0.0375 -0.6357
10562SOL     OW33126   1.789   5.657   4.746 -0.3859  0.3763  0.0876
10562SOL    HW133127   1.750   5.578   4.782 -0.3894  0.4193  0.1793
10562SOL    HW233128   1.718   5.721   4.747  0.1113  0.9500  1.8137
10563SOL     OW33129   3.362   6.421   3.998 -0.0825 -0.3370  0.0669
10563SOL    HW133130   3.397   6.393   4.082  0.0025 -0.8087 -0.1222
10563SOL    HW233131   3.298   6.354   3.975  1.8365 -1.7572 -1.5384
10564SOL     OW33132   3.659   7.183   6.578 -0.4731 -0.3207  0.1566
10564SOL    HW133133   3.727   7.157   6.642  0.0632 -0.5426 -0.4928
10564SOL    HW233134   3.642   7.275   6.597  1.3424  0.2738 -0.8286
10565SOL     OW33135   3.312   4.300   4.381 -0.3142  0.1976  0.1159
10565SOL    HW133136   3.405   4.320   4.371 -0.7486  1.7939 -1.1521
10565SOL    HW233137   3.310   4.222   4.436  1.8287 -0.6911 -0.9342
10566SOL     OW33138   2.868   7.255   5.315  0.4632 -0.1111  0.0957
10566SOL    HW133139   2.777   7.284   5.317  0.2087 -0.8651 -0.1848
10566SOL    HW233140   2.915   7.318   5.370 -0.1163  0.6509 -0.2638
10567SOL     OW33141   4.535   5.904   4.763 -0.2840  0.5864  0.7267
10567SOL    HW133142   4.496   5.818   4.747 -1.3515  1.2170 -0.2569
10567SOL    HW233143   4.465   5.955   4.802 -0.3833  1.6321 -0.7222
10568SOL     OW33144   3.741   7.481   6.332  0.4426  0.3678  0.3794
10568SOL    HW133145   3.719   7.479   6.425  0.6553  0.6920  0.4361
10568SOL    HW233146   3.725   7.571   6.305  0.5867  0.3266  0.1485
10569SOL     OW33147   2.722   7.162   5.957  0.0540 -0.0280  0.1056
10569SOL    HW133148   2.772   7.240   5.936 -1.0181  0.9650  1.0898
10569SOL    HW233149   2.716   7.114   5.874  0.8438  0.8509 -0.4782
10570SOL     OW33150   3.171   7.827   4.097  0.2047  0.6191  0.1189
10570SOL    HW133151   3.198   7.892   4.162 -2.4378 -0.0861  2.0712
10570SOL    HW233152   3.103   7.872   4.046  1.0198  0.5739 -1.0512
10571SOL     OW33153   4.461   7.376   3.867 -0.4839  0.1105 -0.0656
10571SOL    HW133154   4.404   7.305   3.836 -1.7200  0.9898  0.1228
10571SOL    HW233155   4.513   7.336   3.936 -0.4533 -0.8654 -0.6315
10572SOL     OW33156   2.589   6.758   3.810 -0.2269  0.2066  0.5789
10572SOL    HW133157   2.544   6.758   3.894 -3.2942 -2.1997 -0.8429
10572SOL    HW233158   2.520   6.743   3.745  2.4258 -2.7337 -1.9702
10573SOL     OW33159   1.916   6.074   3.833  0.4061  0.3892  0.4225
10573SOL    HW133160   1.926   6.166   3.858 -0.1480  0.1398  1.6782
10573SOL    HW233161   1.821   6.063   3.823  0.4875  0.0058  0.0791
10574SOL     OW33162   5.616   5.945   4.322 -0.1428  0.2226 -0.0971
10574SOL    HW133163   5.523   5.968   4.319 -0.8600 -2.1530  1.1823
10574SOL    HW233164   5.625   5.874   4.258  0.7547  0.3532 -0.1201
10575SOL     OW33165   4.928   7.867   3.656  0.3182 -0.5549  0.0377
10575SOL    HW133166   4.880   7.832   3.731  1.4046  0.1308  1.0866
10575SOL    HW233167   5.000   7.806   3.643  0.3693 -0.4512 -0.1718
10576SOL     OW33168   3.108   6.064   5.224 -0.5039  0.2673 -0.2121
10576SOL    HW133169   3.158   6.134   5.266 -0.8581  0.1018  0.5072
10576SOL    HW233170   3.105   6.088   5.132  2.6867 -0.7652 -0.7240
10577SOL     OW33171   5.412   6.499   4.305 -0.0732  0.7253 -0.0627
10577SOL    HW133172   5.411   6.444   4.384 -0.1304  1.1923  0.2608
10577SOL    HW233173   5.390   6.438   4.234 -1.7427  0.6429  0.4922
10578SOL     OW33174   2.088   7.051   4.613 -0.6997 -0.0050 -0.1805
10578SOL    HW133175   2.149   7.076   4.544 -2.0105 -0.8603 -1.7134
10578SOL    HW233176   2.136   6.987   4.666 -0.5044 -1.4058 -1.9329
10579SOL     OW33177   4.251   6.144   3.128 -0.5094  0.1924 -0.1532
10579SOL    HW133178   4.326   6.194   3.096 -2.2725  2.2723 -1.4283
10579SOL    HW233179   4.211   6.108   3.048 -1.9249  0.7987  0.2471
10580SOL     OW33180   2.910   7.456   5.019  0.0997 -0.3235 -0.3888
10580SOL    HW133181   2.879   7.430   5.106 -0.4791  1.4591 -0.0116
10580SOL    HW233182   2.909   7.375   4.968 -1.9136 -0.9822  0.5772
10581SOL     OW33183   2.586   6.801   6.547 -0.1637 -0.1817 -0.3269
10581SOL    HW133184   2.600   6.714   6.510  2.0201 -0.9119  1.9627
10581SOL    HW233185   2.646   6.857   6.499 -0.3693 -0.2622 -0.6838
10582SOL     OW33186   2.685   4.843   2.416 -0.1865 -0.0085 -0.4219
10582SOL    HW133187   2.635   4.887   2.485  0.4643  1.4149 -0.8340
10582SOL    HW233188   2.776   4.848   2.446 -0.1738 -2.0347  0.0306
10583SOL     OW33189   5.019   7.264   5.535 -0.4071 -0.0632 -0.1122
10583SOL    HW133190   4.955   7.208   5.490 -1.4055  0.7731  0.2121
10583SOL    HW233191   5.027   7.224   5.622 -0.3027 -0.3122 -0.2354
10584SOL     OW33192   2.737   6.918   3.650 -0.0689 -0.3371  0.6220
10584SOL    HW133193   2.784   6.982   3.705  0.3071  0.9546 -1.1092
10584SOL    HW233194   2.682   6.870   3.711  1.7592 -0.3010  2.4106
10585SOL     OW33195   2.008   4.265   5.888 -0.0137 -0.3203  0.1200
10585SOL    HW133196   1.973   4.313   5.813 -0.2365  0.9701  1.0099
10585SOL    HW233197   1.939   4.271   5.954  0.5968 -0.5258  0.7873
10586SOL     OW33198   3.267   0.714   3.018 -0.1971  0.1082 -0.4278
10586SOL    HW133199   3.173   0.701   3.028 -0.1714  0.3691  0.2388
10586SOL    HW233200   3.283   0.803   3.051  0.2714  0.0941 -0.6043
10587SOL     OW33201   4.720   7.134   4.847  0.6219 -0.4724  0.0621
10587SOL    HW133202   4.643   7.162   4.799  1.1702 -1.0829 -1.2171
10587SOL    HW233203   4.759   7.215   4.880 -0.8665 -0.1945  1.2612
10588SOL     OW33204   4.966   5.938   4.848  0.3757 -0.8645  0.3838
10588SOL    HW133205   5.061   5.945   4.836  0.2654 -0.8668 -0.5658
10588SOL    HW233206   4.944   6.011   4.907  0.8214 -0.1583 -0.2959
10589SOL     OW33207   4.840   7.062   5.471 -0.3394 -0.2005  0.3054
10589SOL    HW133208   4.760   7.047   5.521  0.3482  1.2499  1.9598
10589SOL    HW233209   4.906   7.007   5.513  0.0201  0.2781  0.3808
10590SOL     OW33210   3.212   4.526   3.505  0.2437 -0.0758  0.4354
10590SOL    HW133211   3.214   4.577   3.586 -0.0399 -0.2550  0.5561
10590SOL    HW233212   3.237   4.438   3.532  1.2101  0.0968  0.1489
10591SOL     OW33213   4.094   0.048   6.012 -0.5403 -0.1108  0.0525
10591SOL    HW133214   4.113   0.084   6.099 -3.6705  2.3573 -0.0785
10591SOL    HW233215   4.010   0.002   6.023 -0.9306  0.1375 -1.6045
10592SOL     OW33216   2.881   7.879   2.966  0.3302 -0.1722 -0.3351
10592SOL    HW133217   2.967   7.918   2.950  0.1281  0.2143 -0.4897
10592SOL    HW233218   2.890   7.836   3.051  0.3915  0.7144  0.1203
10593SOL     OW33219   2.167   6.647   5.245 -0.2996  0.6608  0.0576
10593SOL    HW133220   2.149   6.706   5.319  1.6252  0.6987  0.5524
10593SOL    HW233221   2.168   6.704   5.168 -2.9996  0.5203 -0.1725
10594SOL     OW33222   4.333   0.119   3.368  0.2324 -0.3344 -0.3177
10594SOL    HW133223   4.271   0.060   3.325 -1.5591  0.5804  0.9021
10594SOL    HW233224   4.364   0.176   3.298  0.6791 -1.6098 -1.1828
10595SOL     OW33225   2.889   1.281   4.234 -0.0698 -0.0993 -0.2118
10595SOL    HW133226   2.914   1.365   4.273 -2.6694  0.9341 -0.5215
10595SOL    HW233227   2.893   1.219   4.306  1.2572  0.4204  0.1861
10596SOL     OW33228   4.128   5.682   3.553 -0.0506 -0.0358 -0.2709
10596SOL    HW133229   4.106   5.589   3.563 -0.9734  0.0299 -1.4959
10596SOL    HW233230   4.097   5.705   3.465  1.6585  1.0288 -0.6358
10597SOL     OW33231   2.352   7.157   5.817  0.7327 -0.1233  0.0962
10597SOL    HW133232   2.396   7.082   5.777  1.0896  0.0925  0.0809
10597SOL    HW233233   2.332   7.215   5.744  0.6813 -0.0886  0.1378
10598SOL     OW33234   2.986   0.240   3.756 -0.2299 -0.1180  0.3693
10598SOL    HW133235   3.020   0.249   3.667  0.0309 -0.7421  0.4012
10598SOL    HW233236   2.939   0.322   3.773 -0.5139 -0.1104 -0.4412
10599SOL     OW33237   2.132   5.491   3.885 -0.5862 -0.3182 -0.7916
10599SOL    HW133238   2.081   5.524   3.811 -1.9613  0.7397  0.5612
10599SOL    HW233239   2.215   5.538   3.880 -1.6379  1.7094 -0.2403
10600SOL     OW33240   2.229   4.646   5.663  0.5606 -0.0974  0.0825
10600SOL    HW133241   2.271   4.717   5.614 -0.6901  1.1880  0.8014
10600SOL    HW233242   2.162   4.613   5.603  0.6320 -0.1531  0.0336
10601SOL     OW33243   3.444   5.874   5.152 -0.1275  0.0808 -0.4369
10601SOL    HW133244   3.431   5.779   5.148 -2.0750  0.2741  0.2336
10601SOL    HW233245   3.436   5.903   5.061 -1.3968 -0.2282 -0.4509
10602SOL     OW33246   3.870   7.482   5.245  0.1229 -0.2243 -0.1825
10602SOL    HW133247   3.958   7.446   5.229  0.2513  0.9604 -2.6257
10602SOL    HW233248   3.836   7.501   5.158 -0.7152  3.5986  0.7661
10603SOL     OW33249   3.306   6.747   4.716  0.5264 -0.3894  0.0967
10603SOL    HW133250   3.371   6.762   4.785 -0.7771 -1.1760  1.5599
10603SOL    HW233251   3.357   6.710   4.643  2.1809  1.8708  0.0071
10604SOL     OW33252   3.816   7.366   5.582  0.0099 -0.2821  0.3453
10604SOL    HW133253   3.901   7.386   5.545 -0.5087 -1.9832 -2.0091
10604SOL    HW233254   3.821   7.274   5.607 -0.5624  0.0995  1.9835
10605SOL     OW33255   3.310   1.097   3.920  1.1789  0.1054 -0.1583
10605SOL    HW133256   3.226   1.120   3.959  2.0396  2.1211  0.6136
10605SOL    HW233257   3.339   1.020   3.970 -0.7364 -1.4739 -1.3083
10606SOL     OW33258   4.480   6.665   5.712 -0.0816 -0.3549 -0.3704
10606SOL    HW133259   4.445   6.596   5.768 -0.9326 -0.6082 -1.1987
10606SOL    HW233260   4.520   6.619   5.638 -0.1295  0.0076 -0.6261
10607SOL     OW33261   3.188   6.579   3.841  0.4135 -0.0721  0.9619
10607SOL    HW133262   3.254   6.537   3.896 -0.7452 -1.8198  1.0688
10607SOL    HW233263   3.168   6.661   3.887  0.4066 -0.8843  2.4856
10608SOL     OW33264   3.436   7.086   4.116  0.0783 -0.0864  0.5032
10608SOL    HW133265   3.461   7.102   4.207  1.1408  3.9721 -0.3181
10608SOL    HW233266   3.517   7.061   4.073  0.4892  1.9741 -0.0122
10609SOL     OW33267   1.379   5.527   4.423  0.0047  0.2310 -0.2994
10609SOL    HW133268   1.363   5.556   4.512 -0.6993 -0.8652 -0.0468
10609SOL    HW233269   1.430   5.597   4.383  1.4299  0.1934  1.3333
10610SOL     OW33270   2.774   5.375   3.568  0.0300  0.2063  0.6024
10610SOL    HW133271   2.855   5.421   3.548 -0.2526 -0.1751 -1.6243
10610SOL    HW233272   2.796   5.320   3.643  1.0512  2.0447  1.7478
10611SOL     OW33273   1.314   6.383   3.467 -0.5944  0.5748 -0.3767
10611SOL    HW133274   1.229   6.344   3.483 -0.2381 -1.3468 -2.6501
10611SOL    HW233275   1.306   6.426   3.382  0.4298  1.2592 -0.1530
10612SOL     OW33276   4.052   0.018   4.444 -0.2985  0.2336  0.2596
10612SOL    HW133277   3.963   0.044   4.466 -0.6363 -1.6759  1.3467
10612SOL    HW233278   4.041  -0.048   4.375  0.3691  0.9072 -0.5144
10613SOL     OW33279   3.929   7.217   4.422 -0.2811 -0.4637  0.0392
10613SOL    HW133280   3.866   7.144   4.423  0.3025 -0.9821 -0.1716
10613SOL    HW233281   3.927   7.251   4.511 -2.9590  1.4033 -0.6130
10614SOL     OW33282   2.479   0.097   2.871  0.0531 -0.1271 -0.0314
10614SOL    HW133283   2.568   0.125   2.893 -0.9268  2.9114  0.4183
10614SOL    HW233284   2.455   0.038   2.943  0.6040  1.5504  1.6196
10615SOL     OW33285   4.195   6.581   3.008 -0.2779 -0.6035 -0.5293
10615SOL    HW133286   4.217   6.505   2.953 -2.0496 -1.0010 -0.7376
10615SOL    HW233287   4.165   6.647   2.946  0.9861  0.1956 -0.3181
10616SOL     OW33288   3.195   5.802   5.462 -0.2246  0.0120 -0.1530
10616SOL    HW133289   3.131   5.772   5.397 -0.8455  1.5550 -0.2824
10616SOL    HW233290   3.243   5.723   5.486 -2.2475 -1.2278  0.0307
10617SOL     OW33291   1.266   7.000   4.156 -0.2202 -0.5008 -0.1234
10617SOL    HW133292   1.360   6.980   4.149  0.2086  0.9110  1.0571
10617SOL    HW233293   1.239   6.959   4.239  0.4354  2.5807  1.7961
10618SOL     OW33294   2.845   5.878   3.344 -0.2678 -0.2883 -0.4823
10618SOL    HW133295   2.845   5.826   3.425 -0.7890  0.8415  0.2650
10618SOL    HW233296   2.803   5.821   3.280 -1.2282 -0.6483  0.4315
10619SOL     OW33297   2.080   4.666   4.494 -0.4614  0.0395  0.5278
10619SOL    HW133298   2.021   4.717   4.438 -0.9785 -1.1947 -0.1024
10619SOL    HW233299   2.124   4.605   4.433  0.1632 -0.2337  1.2390
10620SOL     OW33300   3.629   7.226   5.799  0.2972  0.3010 -0.3115
10620SOL    HW133301   3.559   7.288   5.821  1.1983  0.5635  2.0193
10620SOL    HW233302   3.703   7.252   5.853  0.2448 -3.7601  2.1087
10621SOL     OW33303   4.728   7.789   3.449  0.9684 -0.2414  0.3026
10621SOL    HW133304   4.748   7.846   3.523 -1.0826  0.5163  0.3381
10621SOL    HW233305   4.803   7.799   3.390  1.3223  1.3783  0.9777
10622SOL     OW33306   4.941   6.285   3.113 -0.2118 -0.2287 -0.1536
10622SOL    HW133307   4.905   6.209   3.158 -2.6185  0.1571 -1.2639
10622SOL    HW233308   4.983   6.336   3.182 -0.3075 -1.5766  0.9370
10623SOL     OW33309   3.830   0.413   2.821  0.1010  0.1972  0.0220
10623SOL    HW133310   3.820   0.452   2.909 -4.2814  1.0898 -0.6240
10623SOL    HW233311   3.808   0.484   2.761  0.7062 -1.0142 -1.7021
10624SOL     OW33312   4.740   6.565   6.079 -0.1473 -0.3937 -0.2657
10624SOL    HW133313   4.741   6.574   5.983 -3.0767  0.8632 -0.2798
10624SOL    HW233314   4.810   6.623   6.108  0.3830 -0.3052 -1.6164
10625SOL     OW33315   4.119   5.444   4.158  0.2301  0.4751  0.0792
10625SOL    HW133316   4.179   5.497   4.106  1.0210 -0.5943 -0.1296
10625SOL    HW233317   4.158   5.443   4.246 -0.4848  1.3146  0.4172
10626SOL     OW33318   1.382   5.875   3.909 -0.1274 -0.3325 -0.0836
10626SOL    HW133319   1.382   5.929   3.987  0.7381  0.7035 -0.7668
10626SOL    HW233320   1.296   5.888   3.869 -0.7460 -1.2260  0.9006
10627SOL     OW33321   4.894   6.148   5.054 -0.3675 -0.6323 -0.0288
10627SOL    HW133322   4.897   6.111   5.142  1.0130  1.5086  0.9144
10627SOL    HW233323   4.854   6.234   5.065  1.7059  0.5578 -1.0610
10628SOL     OW33324   5.307   7.510   5.598 -0.0364  1.0303 -0.0821
10628SOL    HW133325   5.284   7.436   5.542  0.3731  0.1291  0.9179
10628SOL    HW233326   5.241   7.577   5.579 -0.2163  0.5457 -1.2342
10629SOL     OW33327   4.717   7.762   5.805  0.2787 -0.3083 -0.0989
10629SOL    HW133328   4.658   7.690   5.827  0.7831 -0.8927 -0.5980
10629SOL    HW233329   4.804   7.732   5.833  0.7133 -0.4860 -1.5237
10630SOL     OW33330   4.239   5.796   3.784 -0.1769  0.2451  0.0913
10630SOL    HW133331   4.322   5.748   3.788 -0.6010 -0.4584  0.7510
10630SOL    HW233332   4.195   5.762   3.706  0.1926  0.7100 -0.3322
10631SOL     OW33333   3.050   7.688   4.998 -0.2354  0.0456 -0.2663
10631SOL    HW133334   2.982   7.622   5.011 -0.9397  1.1406  2.0886
10631SOL    HW233335   3.031   7.725   4.912 -0.9546 -1.5078 -0.8123
10632SOL     OW33336   0.990   7.264   4.402 -0.2495 -0.2234  0.1482
10632SOL    HW133337   1.032   7.267   4.316  0.9548  1.7248  0.7243
10632SOL    HW233338   0.905   7.307   4.388 -0.3532 -0.5428 -0.2107
10633SOL     OW33339   3.066   0.309   5.590 -0.8715  0.3678  0.2233
10633SOL    HW133340   3.010   0.318   5.513 -1.4212  0.0277  0.5751
10633SOL    HW233341   3.056   0.218   5.617  0.3708  0.1207 -0.0910
10634SOL     OW33342   4.253   0.019   3.831  0.0653 -0.6054 -0.6366
10634SOL    HW133343   4.294   0.053   3.910 -0.3158  0.7404 -0.9911
10634SOL    HW233344   4.326  -0.014   3.779  0.6558  1.0566 -0.9213
10635SOL     OW33345   3.392   5.932   5.683  0.4509 -0.3269 -0.2300
10635SOL    HW133346   3.366   5.946   5.592  1.2135  1.7287 -0.1719
10635SOL    HW233347   3.310   5.931   5.732 -0.1799 -3.4875 -1.0693
10636SOL     OW33348   1.344   0.036   6.655 -0.3417  0.3144  0.4157
10636SOL    HW133349   1.376   0.014   6.742 -2.1894  0.3573  1.1368
10636SOL    HW233350   1.290  -0.038   6.629  2.7310 -1.3063 -2.1771
10637SOL     OW33351   1.701   5.290   3.740  0.0853  0.3513 -0.0705
10637SOL    HW133352   1.651   5.220   3.782 -1.5757  1.4198 -0.1699
10637SOL    HW233353   1.754   5.245   3.673  1.8553 -1.2217  2.2263
10638SOL     OW33354   2.974   4.682   3.081 -0.2834 -0.2752 -0.0626
10638SOL    HW133355   3.040   4.695   3.150 -1.5309 -1.5962  1.4582
10638SOL    HW233356   2.981   4.589   3.059 -0.9078 -0.1820 -0.6696
10639SOL     OW33357   4.118   7.807   4.665 -0.0724  0.0710 -0.2463
10639SOL    HW133358   4.185   7.758   4.617  0.4720  1.5098 -0.9997
10639SOL    HW233359   4.141   7.899   4.652 -2.4194  0.6337 -0.8515
10640SOL     OW33360   3.581   6.120   3.713  0.0806  0.2124  0.1495
10640SOL    HW133361   3.611   6.189   3.773  1.8747 -1.8932  1.8658
10640SOL    HW233362   3.507   6.080   3.757  0.0252  0.0471 -0.0925
10641SOL     OW33363   4.022   6.950   5.302 -0.2524 -0.4209  0.0784
10641SOL    HW133364   4.003   6.863   5.267  0.4445 -0.6793  0.3307
10641SOL    HW233365   3.946   7.003   5.276 -1.0701 -1.2933  0.6200
10642SOL     OW33366   4.017   7.408   4.055  0.0901  0.3376  0.0606
10642SOL    HW133367   4.013   7.446   4.143  0.9262  0.5195  0.0309
10642SOL    HW233368   4.098   7.356   4.055 -0.9705 -1.3700  0.0612
10643SOL     OW33369   3.597   5.033   5.259  0.1093 -0.2163  0.7607
10643SOL    HW133370   3.660   4.964   5.279  0.8259  0.2622  0.1919
10643SOL    HW233371   3.549   5.001   5.184 -0.7091 -0.8183  1.5253
10644SOL     OW33372   1.966   4.566   5.793  0.0154 -0.4454 -0.1795
10644SOL    HW133373   2.061   4.567   5.793  0.0499  1.6329 -0.8786
10644SOL    HW233374   1.942   4.523   5.876  1.4910 -2.2170 -0.6013
10645SOL     OW33375   1.004   4.569   4.265 -1.0455  0.2344 -0.2252
10645SOL    HW133376   0.931   4.584   4.204 -1.6309 -2.1307 -0.1994
10645SOL    HW233377   1.050   4.653   4.268 -1.8567  0.8672 -2.7844
10646SOL     OW33378   4.410   6.556   4.285 -0.4006 -0.6110  0.1043
10646SOL    HW133379   4.321   6.521   4.285 -0.4047 -0.6018  0.1887
10646SOL    HW233380   4.460   6.496   4.339 -0.1677 -1.0708 -0.6092
10647SOL     OW33381   3.741   5.645   3.950  0.3810 -0.3178 -0.3156
10647SOL    HW133382   3.827   5.607   3.935  0.9656  1.3947 -1.6062
10647SOL    HW233383   3.752   5.739   3.933 -1.9235 -0.1600 -1.4073
10648SOL     OW33384   2.320   5.677   2.649 -0.1791  0.0659  0.3997
10648SOL    HW133385   2.372   5.742   2.600 -0.6058  0.4472  0.4431
10648SOL    HW233386   2.320   5.710   2.739  1.3518 -1.1003  0.8768
10649SOL     OW33387   3.702   7.376   3.339 -0.1367  0.4605 -0.3747
10649SOL    HW133388   3.634   7.418   3.286 -1.1374 -0.1393  0.3864
10649SOL    HW233389   3.774   7.438   3.339 -0.1985  0.6031 -2.1884
10650SOL     OW33390   3.946   7.167   5.039  0.0046 -0.4826 -0.2833
10650SOL    HW133391   3.893   7.242   5.012  1.0143  0.0101 -0.9454
10650SOL    HW233392   4.022   7.206   5.083 -0.2890 -1.1874  0.8793
10651SOL     OW33393   1.944   4.686   4.746 -0.3071 -0.0024  0.0255
10651SOL    HW133394   1.985   4.674   4.660 -0.5281 -1.8789  0.1234
10651SOL    HW233395   2.010   4.733   4.798  0.6094 -0.5401 -0.6216
10652SOL     OW33396   4.550   6.673   4.010  0.2865  0.4323  0.2485
10652SOL    HW133397   4.626   6.664   4.068 -0.4199 -1.2216  1.0062
10652SOL    HW233398   4.518   6.583   4.001 -1.3017  1.0482 -0.4165
10653SOL     OW33399   3.594   4.890   2.771  0.5260  0.1557 -0.0054
10653SOL    HW133400   3.588   4.804   2.730  0.4427 -0.5579  1.4453
10653SOL    HW233401   3.668   4.932   2.728  0.5483 -0.6165 -0.7505
10654SOL     OW33402   3.115   6.631   4.223 -0.4525 -0.0939  0.3917
10654SOL    HW133403   3.107   6.536   4.231 -0.7191 -0.0335  0.8593
10654SOL    HW233404   3.098   6.664   4.311  2.4504  0.2224  0.9381
10655SOL     OW33405   3.925   6.108   4.150  0.1738  0.3748 -0.4854
10655SOL    HW133406   3.974   6.102   4.068 -0.5655 -1.5691 -0.8410
10655SOL    HW233407   3.852   6.166   4.130  0.1733  0.1604 -1.1396
10656SOL     OW33408   3.342   0.584   4.588 -0.0860  0.4720 -0.1280
10656SOL    HW133409   3.348   0.641   4.664  2.4224 -0.3500  0.3953
10656SOL    HW233410   3.367   0.640   4.514  1.2299  0.3582  0.2177
10657SOL     OW33411   4.685   7.264   5.852  0.1792 -0.7335  0.6216
10657SOL    HW133412   4.678   7.192   5.788 -0.6315 -0.2505  0.1430
10657SOL    HW233413   4.642   7.338   5.809  0.9407  0.0288  1.1388
10658SOL     OW33414   3.135   7.223   4.863  0.1841  0.3116 -0.4322
10658SOL    HW133415   3.094   7.287   4.804 -0.6938 -0.3155 -0.5260
10658SOL    HW233416   3.080   7.145   4.855  1.4077 -0.5678 -0.5509
10659SOL     OW33417   1.360   7.632   2.916  0.5217  0.4064  0.0732
10659SOL    HW133418   1.351   7.565   2.849  1.3958 -0.3483  0.6922
10659SOL    HW233419   1.332   7.713   2.873 -0.8999 -0.3892 -0.5797
10660SOL     OW33420   5.948   0.740   4.976 -0.1466  0.0035 -0.4682
10660SOL    HW133421   5.978   0.694   5.054 -1.5948 -1.0326 -0.4621
10660SOL    HW233422   6.007   0.710   4.906 -0.0703 -0.6266 -0.1434
10661SOL     OW33423   4.493   6.562   3.288 -0.0177  0.0360  0.5347
10661SOL    HW133424   4.561   6.575   3.354 -0.3548  1.1066  0.6999
10661SOL    HW233425   4.412   6.552   3.339 -0.0392 -0.9236  0.3297
10662SOL     OW33426   1.566   0.052   5.132 -0.1262  0.1061 -0.0149
10662SOL    HW133427   1.617   0.118   5.085  1.2819  0.2937  1.6643
10662SOL    HW233428   1.521   0.003   5.063  0.0642  1.7636 -1.3964
10663SOL     OW33429   2.687   5.677   3.215  0.1847 -0.8398  0.3442
10663SOL    HW133430   2.617   5.742   3.222  0.3036 -0.7210  0.4485
10663SOL    HW233431   2.667   5.613   3.283  0.8481 -0.1559  1.2084
10664SOL     OW33432   2.710   6.042   3.575 -0.4763  0.4636  0.0594
10664SOL    HW133433   2.757   5.998   3.504 -0.0582  0.9939  0.0002
10664SOL    HW233434   2.752   6.128   3.581 -0.9166  0.6454  0.5414
10665SOL     OW33435   4.306   6.285   3.642  0.2607  0.3798  0.3656
10665SOL    HW133436   4.252   6.350   3.686 -0.2252  0.7088 -0.6927
10665SOL    HW233437   4.262   6.201   3.659 -0.3324  0.5912 -0.0811
10666SOL     OW33438   1.090   0.593   4.765  0.2936 -0.3967 -0.1740
10666SOL    HW133439   1.120   0.502   4.771 -0.6616 -0.6299  2.3105
10666SOL    HW233440   1.013   0.589   4.709  1.4660 -0.7146 -1.8499
10667SOL     OW33441   4.000   7.144   5.707  0.2556 -0.0512 -0.7013
10667SOL    HW133442   3.926   7.083   5.701 -0.2717  0.4696  0.2285
10667SOL    HW233443   4.078   7.087   5.708 -0.2532 -0.7790  0.8059
10668SOL     OW33444   4.554   6.362   4.679  0.2458  0.2328 -0.1004
10668SOL    HW133445   4.575   6.271   4.657 -2.1875 -0.2800 -0.5466
10668SOL    HW233446   4.552   6.363   4.775  1.0995  0.0325 -0.0737
10669SOL     OW33447   1.311   4.495   5.177  0.5259  0.3740 -0.2703
10669SOL    HW133448   1.217   4.483   5.187  0.6089 -0.7421 -0.6730
10669SOL    HW233449   1.345   4.406   5.164  1.6003  0.7890 -0.3682
10670SOL     OW33450   2.119   5.851   5.733  0.3718  0.3802 -0.0139
10670SOL    HW133451   2.161   5.765   5.734  0.5013  0.4212  1.8498
10670SOL    HW233452   2.072   5.855   5.816  0.9353  2.3852  0.2591
10671SOL     OW33453   4.112   6.739   4.618  0.6485  0.4566  0.0990
10671SOL    HW133454   4.200   6.730   4.582  0.4728 -0.4208 -0.1238
10671SOL    HW233455   4.055   6.698   4.553 -0.0015  1.5591 -0.0541
10672SOL     OW33456   4.593   7.547   3.065 -0.0337 -0.2922  0.1650
10672SOL    HW133457   4.605   7.625   3.120 -1.4966 -0.2929  0.5520
10672SOL    HW233458   4.568   7.581   2.979  1.2832 -0.3104 -0.2372
10673SOL     OW33459   3.631   7.053   4.931 -0.1705 -0.5558  0.1359
10673SOL    HW133460   3.576   6.975   4.940 -0.8794  0.0221  1.0263
10673SOL    HW233461   3.717   7.026   4.962 -1.1553 -0.2126  3.5167
10674SOL     OW33462   3.346   6.992   5.616  0.2728 -0.0658 -0.0683
10674SOL    HW133463   3.319   7.078   5.649 -1.3189 -0.5637  0.0423
10674SOL    HW233464   3.287   6.976   5.541  1.0094 -0.7621 -0.5160
10675SOL     OW33465   2.849   6.191   4.720  0.0120  0.1376  0.1341
10675SOL    HW133466   2.877   6.252   4.652 -3.4574  2.6915  0.7049
10675SOL    HW233467   2.916   6.198   4.788  0.1589  2.8536 -0.1668
10676SOL     OW33468   3.389   7.024   5.269 -0.2371 -0.1061  0.0870
10676SOL    HW133469   3.378   7.118   5.284  0.7739  0.3079 -1.4173
10676SOL    HW233470   3.313   6.999   5.217 -0.6326 -0.1859  0.6954
10677SOL     OW33471   0.879   5.903   3.902 -0.0513 -0.0737  0.2854
10677SOL    HW133472   0.849   5.814   3.923 -2.1406  0.4388 -0.2485
10677SOL    HW233473   0.886   5.947   3.986 -1.4638 -0.0578  0.4204
10678SOL     OW33474   2.634   6.195   4.092 -0.5735  0.1189  0.1908
10678SOL    HW133475   2.582   6.117   4.112 -1.7497  0.3140 -1.8507
10678SOL    HW233476   2.675   6.175   4.007 -0.5310  1.5490 -0.1454
10679SOL     OW33477   4.304   7.177   3.752 -0.4603  0.0790  0.5878
10679SOL    HW133478   4.330   7.095   3.709 -0.7415  1.2632 -2.0103
10679SOL    HW233479   4.248   7.149   3.825  0.8377 -2.0841  0.8584
10680SOL     OW33480   4.383   0.445   3.371  0.0606  0.4175 -0.3495
10680SOL    HW133481   4.434   0.411   3.298  0.1094  0.0246 -0.1371
10680SOL    HW233482   4.303   0.392   3.372  0.9061 -0.9299  1.0680
10681SOL     OW33483   0.855   1.248   4.526  0.3576  0.3430  0.0454
10681SOL    HW133484   0.814   1.265   4.611 -0.2495 -0.8774  0.0287
10681SOL    HW233485   0.871   1.334   4.488 -3.0057  0.9318 -0.3348
10682SOL     OW33486   2.802   7.587   4.657  0.3507  0.3484 -0.2036
10682SOL    HW133487   2.839   7.675   4.656  1.6660 -0.1029  2.0971
10682SOL    HW233488   2.730   7.592   4.720 -0.2778 -0.0021 -0.8710
10683SOL     OW33489   2.287   7.058   4.282  0.4079  0.1094 -0.1979
10683SOL    HW133490   2.239   7.017   4.210 -0.4157 -1.1468  1.0145
10683SOL    HW233491   2.229   7.127   4.314 -0.8901 -1.6717  1.5314
10684SOL     OW33492   4.004   6.062   3.878  0.8192  0.5049 -0.0438
10684SOL    HW133493   3.916   6.026   3.875  0.6337  0.8153  1.3228
10684SOL    HW233494   4.042   6.038   3.793  0.8382 -3.2068  0.8312
10685SOL     OW33495   1.795   6.990   4.733 -0.2200  0.5536 -0.0278
10685SOL    HW133496   1.840   7.026   4.656 -0.8914  2.5078  0.4251
10685SOL    HW233497   1.797   6.895   4.720  2.1294  0.6752 -1.0539
10686SOL     OW33498   2.270   5.129   6.857 -0.7671 -0.0079 -0.0309
10686SOL    HW133499   2.262   5.042   6.898  0.4186 -0.4770 -0.7416
10686SOL    HW233500   2.362   5.135   6.831 -0.9383  1.2821 -0.4123
10687SOL     OW33501   3.276   7.795   1.947  0.1612  0.5615  0.6233
10687SOL    HW133502   3.262   7.819   2.039 -1.6528 -0.6794  0.7259
10687SOL    HW233503   3.220   7.853   1.897  3.6069  3.6014 -0.1479
10688SOL     OW33504   4.837   7.227   4.376 -0.7011  0.1315 -0.4017
10688SOL    HW133505   4.863   7.288   4.307  1.2464 -0.7775 -0.5289
10688SOL    HW233506   4.916   7.176   4.395 -0.7434  1.1696  3.4094
10689SOL     OW33507   3.203   7.804   3.382 -0.3139 -0.2417  1.0196
10689SOL    HW133508   3.229   7.758   3.462  0.6957 -0.3197  0.6581
10689SOL    HW233509   3.149   7.877   3.413  1.3766  0.6882  1.9247
10690SOL     OW33510   2.009   7.833   4.118 -0.2256  0.2014 -0.0236
10690SOL    HW133511   2.044   7.848   4.030  0.5898 -0.6905  0.1341
10690SOL    HW233512   1.925   7.790   4.103 -0.2104  0.2905 -0.3759
10691SOL     OW33513   3.792   6.976   4.454 -0.0027 -0.1401  0.2842
10691SOL    HW133514   3.702   6.964   4.484 -0.0996 -0.2787 -0.0663
10691SOL    HW233515   3.789   6.958   4.361  0.5225 -0.7981  0.3884
10692SOL     OW33516   1.531   7.402   4.645  0.0649  0.0953 -0.8994
10692SOL    HW133517   1.557   7.352   4.723 -1.0172  0.7858 -0.0654
10692SOL    HW233518   1.563   7.350   4.571 -0.3182 -1.4059 -0.0529
10693SOL     OW33519   3.353   0.100   4.591 -0.6459  0.1444 -0.1686
10693SOL    HW133520   3.285   0.088   4.657  0.1361  0.1004  0.6412
10693SOL    HW233521   3.433   0.067   4.631  0.2630  1.9735 -0.3444
10694SOL     OW33522   4.201   7.543   4.874 -0.2632 -0.1203  0.3015
10694SOL    HW133523   4.245   7.571   4.794  2.2457 -0.3242  1.4982
10694SOL    HW233524   4.238   7.599   4.942 -1.0672 -1.0601  1.5534
10695SOL     OW33525   2.332   6.893   3.455 -0.2490  0.0119  0.2357
10695SOL    HW133526   2.284   6.906   3.373  1.1611  0.0703 -0.6173
10695SOL    HW233527   2.424   6.897   3.430  0.2324 -1.5144  1.5881
10696SOL     OW33528   1.696   0.068   2.587  0.3778  0.4673  0.6674
10696SOL    HW133529   1.694   0.104   2.499  0.0605  0.9926  0.8868
10696SOL    HW233530   1.611   0.024   2.596  0.3091  0.6279  0.8012
10697SOL     OW33531   3.001   5.492   3.490  0.0031  0.3799  0.2424
10697SOL    HW133532   3.022   5.409   3.447  0.0822 -0.4456  1.7750
10697SOL    HW233533   3.082   5.542   3.485 -0.6211  1.2586 -2.4880
10698SOL     OW33534   3.728   6.213   4.997  0.2824 -0.0231  0.1535
10698SOL    HW133535   3.654   6.224   5.057 -2.1226 -1.2969 -2.3450
10698SOL    HW233536   3.724   6.121   4.971  2.9948 -0.2059  0.1291
10699SOL     OW33537   2.617   6.628   4.122 -0.1749 -0.1928 -0.5420
10699SOL    HW133538   2.667   6.664   4.195  0.5893  0.8992 -1.5659
10699SOL    HW233539   2.540   6.685   4.116  0.6440  0.8515 -1.6670
10700SOL     OW33540   0.543   6.866   4.678 -0.6680  0.0507 -0.0600
10700SOL    HW133541   0.553   6.840   4.770 -0.0143 -0.8539 -0.3741
10700SOL    HW233542   0.478   6.805   4.643  0.3784 -0.7688 -0.6327
10701SOL     OW33543   3.405   7.289   3.874  0.4664  0.9490 -0.1330
10701SOL    HW133544   3.343   7.360   3.885 -0.4555  0.2663 -0.7759
10701SOL    HW233545   3.392   7.233   3.951  0.0023  0.6045 -0.4576
10702SOL     OW33546   3.695   6.593   3.981  0.3153  0.3936 -0.4963
10702SOL    HW133547   3.615   6.578   3.931 -0.1061 -2.2985  0.7967
10702SOL    HW233548   3.753   6.641   3.921 -1.2203 -0.0988 -2.4648
10703SOL     OW33549   2.360   5.204   3.568 -0.1910 -0.1073 -0.3206
10703SOL    HW133550   2.384   5.113   3.547  1.3524  0.1683  0.0848
10703SOL    HW233551   2.353   5.247   3.483 -0.8351 -0.5839 -0.5120
10704SOL     OW33552   3.244   5.552   6.253  0.2781  0.2202 -0.2612
10704SOL    HW133553   3.236   5.515   6.341 -0.4704  0.7108 -0.1130
10704SOL    HW233554   3.337   5.572   6.243  0.7545 -1.8775 -0.4303
10705SOL     OW33555   2.007   7.009   5.791  0.0226 -0.3105  0.3287
10705SOL    HW133556   2.082   7.064   5.766 -0.3112 -0.4072 -0.9317
10705SOL    HW233557   2.013   6.932   5.734 -0.5148 -0.7517  0.8590
10706SOL     OW33558   2.146   5.847   3.283  0.2027  0.7284  0.1434
10706SOL    HW133559   2.124   5.924   3.337  0.3023  2.2296 -1.8620
10706SOL    HW233560   2.089   5.854   3.207 -1.0153 -2.1820  0.6493
10707SOL     OW33561   3.627   7.571   5.075 -0.5381  0.2546  0.2880
10707SOL    HW133562   3.602   7.480   5.057 -0.4055  0.3534 -0.4244
10707SOL    HW233563   3.638   7.611   4.988 -0.7385  0.9905  0.5916
10708SOL     OW33564   2.861   4.825   2.743 -0.6249 -0.1942  0.8674
10708SOL    HW133565   2.766   4.817   2.749 -0.6561 -0.8065 -0.1644
10708SOL    HW233566   2.891   4.739   2.714  0.4109 -0.4933  2.6595
10709SOL     OW33567   5.103   7.424   2.879 -0.2753  0.0581  0.3533
10709SOL    HW133568   5.030   7.362   2.886  0.8829 -1.5931 -1.1444
10709SOL    HW233569   5.181   7.368   2.878  0.9208  1.6615  0.3116
10710SOL     OW33570   3.484   6.068   3.966  0.5563  0.3000 -0.4532
10710SOL    HW133571   3.412   6.125   3.993  0.7419  0.9340 -1.2597
10710SOL    HW233572   3.555   6.088   4.027  0.4665  0.5940 -0.4456
10711SOL     OW33573   4.716   7.407   3.731 -0.0130 -0.5196 -0.5790
10711SOL    HW133574   4.663   7.476   3.689  1.6551  1.2337  0.0466
10711SOL    HW233575   4.659   7.372   3.799 -0.9035  0.2446 -0.9025
10712SOL     OW33576   2.831   6.796   4.733  0.4374  0.2771  0.8534
10712SOL    HW133577   2.902   6.766   4.676  1.6217  0.4706  2.1529
10712SOL    HW233578   2.753   6.796   4.677  1.6128  0.8981 -0.8772
10713SOL     OW33579   4.135   4.968   4.835 -0.2875 -0.1013 -0.4617
10713SOL    HW133580   4.123   4.879   4.870  1.1442  0.0146  0.3882
10713SOL    HW233581   4.226   4.971   4.807  0.0944  1.5314  0.8124
10714SOL     OW33582   1.256   0.513   6.512 -0.0408 -0.1299  0.2996
10714SOL    HW133583   1.330   0.553   6.558 -0.1484 -1.4998  1.7503
10714SOL    HW233584   1.287   0.502   6.422  0.4534  1.9295  0.1716
10715SOL     OW33585   2.527   6.282   3.767  0.3836 -0.2817  0.1672
10715SOL    HW133586   2.489   6.195   3.777  1.1015 -0.6629 -0.3289
10715SOL    HW233587   2.622   6.268   3.776  0.5859  0.2741 -0.9523
10716SOL     OW33588   3.980   6.109   4.543 -0.0330  0.0492  0.2990
10716SOL    HW133589   4.064   6.068   4.525 -0.4718 -0.8616  0.2269
10716SOL    HW233590   4.001   6.188   4.592  0.9072  0.2986 -0.4891
10717SOL     OW33591   2.962   5.849   5.311 -0.4360  0.2161  0.1229
10717SOL    HW133592   3.020   5.912   5.268 -0.9069 -0.0890 -0.9915
10717SOL    HW233593   2.916   5.901   5.378 -0.6254  0.9937 -0.5929
10718SOL     OW33594   1.453   6.278   5.192 -1.0315  0.1182 -0.7254
10718SOL    HW133595   1.439   6.285   5.098 -1.0397 -1.7445 -0.8926
10718SOL    HW233596   1.548   6.277   5.203 -1.0306  0.2842 -0.7135
10719SOL     OW33597   3.492   5.496   4.437  0.7391 -0.0269 -0.4656
10719SOL    HW133598   3.476   5.563   4.371  2.3509 -0.2644 -1.1436
10719SOL    HW233599   3.516   5.418   4.387  0.3137 -0.7150  0.3633
10720SOL     OW33600   1.557   7.384   4.264 -0.0621 -0.0559 -0.1148
10720SOL    HW133601   1.483   7.369   4.323  1.1073 -1.9597  0.9831
10720SOL    HW233602   1.607   7.454   4.306 -0.0469 -0.3437  0.3543
10721SOL     OW33603   2.408   7.556   5.093 -0.5752  0.3681 -0.3953
10721SOL    HW133604   2.317   7.561   5.065 -0.6848  1.0598  0.0591
10721SOL    HW233605   2.416   7.622   5.161 -0.3201 -1.2494  1.2278
10722SOL     OW33606   3.570   6.547   5.102 -0.5358  0.0129 -0.1170
10722SOL    HW133607   3.637   6.550   5.033 -0.2277  0.2509  0.1870
10722SOL    HW233608   3.545   6.455   5.107  0.7666 -0.3326  0.7009
10723SOL     OW33609   4.288   6.071   3.836  0.4693 -0.1624 -0.2905
10723SOL    HW133610   4.268   5.978   3.828  0.8555 -0.4032  1.1583
10723SOL    HW233611   4.212   6.108   3.881  0.6787  0.0512 -0.1089
10724SOL     OW33612   3.817   6.930   4.209  0.0396  0.0278  0.5522
10724SOL    HW133613   3.785   6.918   4.119  1.0643  0.8045  0.0607
10724SOL    HW233614   3.910   6.908   4.204  0.1643  0.3533  1.3636
10725SOL     OW33615   3.506   7.710   5.987  0.7055 -0.0785 -0.0067
10725SOL    HW133616   3.508   7.771   5.914  0.1787  0.7767  0.6752
10725SOL    HW233617   3.498   7.623   5.946  2.1497  0.2245 -1.0070
10726SOL     OW33618   2.715   7.975   3.468  0.2194  0.1093  0.7747
10726SOL    HW133619   2.720   8.037   3.541  0.1046  1.0492  0.0225
10726SOL    HW233620   2.762   8.020   3.397 -0.3466 -0.4382  0.0432
10727SOL     OW33621   3.864   7.746   5.760  0.2038 -0.0263  0.7681
10727SOL    HW133622   3.936   7.799   5.794  2.2857 -0.8324 -2.0299
10727SOL    HW233623   3.880   7.659   5.796  1.9907 -0.7089 -1.4486
10728SOL     OW33624   6.293   6.207   4.078  0.4213 -0.0197 -0.4963
10728SOL    HW133625   6.211   6.253   4.095  0.1799  0.3795 -2.4444
10728SOL    HW233626   6.299   6.205   3.982  1.8500 -1.5394 -0.4090
10729SOL     OW33627   2.949   7.975   5.052 -0.4572  0.0943 -0.3135
10729SOL    HW133628   2.919   7.886   5.035  0.0053 -0.3408  1.0158
10729SOL    HW233629   2.873   8.030   5.030 -1.2383 -0.7466  0.1650
10730SOL     OW33630   1.596   4.850   5.920  0.1747  0.6840 -0.9989
10730SOL    HW133631   1.566   4.768   5.882  2.2008 -0.9843  0.7627
10730SOL    HW233632   1.539   4.864   5.995  0.3311  0.4644 -0.8396
10731SOL     OW33633   3.290   7.726   3.639 -0.4512  0.3492  0.3198
10731SOL    HW133634   3.234   7.657   3.674 -0.2719  0.6751  1.2706
10731SOL    HW233635   3.323   7.772   3.716  0.8683  0.3740 -0.2308
10732SOL     OW33636   3.024   5.575   4.661  0.2694 -0.0290  0.0195
10732SOL    HW133637   3.030   5.625   4.743  2.9069  0.5147 -0.4241
10732SOL    HW233638   3.106   5.527   4.655 -0.9083 -2.0523 -1.1247
10733SOL     OW33639   3.290   6.806   4.109  0.1717 -0.4032 -0.4641
10733SOL    HW133640   3.376   6.820   4.149 -1.2365  2.2702  2.0888
10733SOL    HW233641   3.262   6.720   4.140  0.8378 -0.1167  1.0388
10734SOL     OW33642   2.150   0.104   2.899 -0.0477  0.7082 -0.0674
10734SOL    HW133643   2.226   0.047   2.885 -0.6866  0.0593 -1.0612
10734SOL    HW233644   2.098   0.057   2.965 -1.2354 -0.5973 -1.8514
10735SOL     OW33645   2.080   6.510   3.553 -0.0003  0.2092 -0.6397
10735SOL    HW133646   2.044   6.532   3.639  0.4740 -1.4458  0.0096
10735SOL    HW233647   2.022   6.442   3.519  1.0925 -0.7529 -0.6329
10736SOL     OW33648   4.633   5.881   3.938  0.0230 -0.1638  0.3988
10736SOL    HW133649   4.723   5.892   3.906 -0.7017  1.0350 -1.4064
10736SOL    HW233650   4.587   5.958   3.905 -2.0090 -1.4864 -0.0046
10737SOL     OW33651   1.899   3.724   5.248  0.0125 -0.3127  0.1258
10737SOL    HW133652   1.914   3.767   5.164 -0.8666 -0.4531 -0.1167
10737SOL    HW233653   1.865   3.794   5.305 -0.2528 -0.4102  0.0909
10738SOL     OW33654   4.248   7.120   5.384 -0.2868 -0.2017  0.0637
10738SOL    HW133655   4.178   7.065   5.348 -0.7720  0.0887  0.5481
10738SOL    HW233656   4.241   7.108   5.479 -0.8347  1.1951  0.2209
10739SOL     OW33657   3.046   7.022   5.355  0.2677  0.0149  0.1341
10739SOL    HW133658   3.038   7.110   5.391  0.6387  0.2675 -0.3854
10739SOL    HW233659   3.026   7.032   5.262  1.7778 -0.1803 -0.2289
10740SOL     OW33660   3.876   0.008   3.249  0.2254  0.3398 -0.7764
10740SOL    HW133661   3.834  -0.037   3.323  2.1019  0.3821  0.3938
10740SOL    HW233662   3.814   0.076   3.223 -0.5083  0.2899  0.7551
10741SOL     OW33663   2.059   5.698   4.899  0.3324 -0.8032 -0.2473
10741SOL    HW133664   1.979   5.721   4.851  0.1182 -0.2373  0.3646
10741SOL    HW233665   2.090   5.618   4.857  0.4939  0.0091 -1.7409
10742SOL     OW33666   0.686   6.006   5.101  0.3948  0.1100  0.5504
10742SOL    HW133667   0.632   5.928   5.087 -1.1011  1.3726 -1.1314
10742SOL    HW233668   0.760   5.975   5.153  0.8110 -2.8195 -1.5521
10743SOL     OW33669   2.529   6.259   5.206 -0.1361  0.2583 -0.1621
10743SOL    HW133670   2.461   6.326   5.198 -1.5428 -1.2061 -1.1726
10743SOL    HW233671   2.572   6.258   5.120  0.5151  0.4885  0.1511
10744SOL     OW33672   1.035   7.159   7.987  0.2287  0.1500 -0.4633
10744SOL    HW133673   0.945   7.127   7.980 -0.0437  0.3101  1.6476
10744SOL    HW233674   1.088   7.080   7.992 -0.1355 -0.0236  1.4409
10745SOL     OW33675   4.497   7.168   4.262  0.0472 -0.5203 -0.5554
10745SOL    HW133676   4.495   7.195   4.354  2.3383 -2.8902  0.3021
10745SOL    HW233677   4.440   7.092   4.258  0.6642 -0.9676 -0.8899
10746SOL     OW33678   2.905   6.109   7.344 -0.5432  0.4678 -0.5136
10746SOL    HW133679   2.846   6.178   7.312 -1.0502  2.0266  3.2527
10746SOL    HW233680   2.992   6.145   7.331 -0.7984  1.9303  1.3161
10747SOL     OW33681   3.503   5.222   6.079 -0.2715 -0.1264 -0.1898
10747SOL    HW133682   3.597   5.202   6.078  0.1212  1.2492  1.9430
10747SOL    HW233683   3.463   5.147   6.123  0.3128  0.6301  1.7624
10748SOL     OW33684   1.933   3.570   7.106  0.0737  0.3974 -0.0931
10748SOL    HW133685   1.864   3.580   7.171 -0.1557 -0.3882 -0.2030
10748SOL    HW233686   1.966   3.659   7.092 -0.2490  0.6502  0.6791
10749SOL     OW33687   2.293   5.774   7.541  0.0052 -0.0024  0.0098
10749SOL    HW133688   2.234   5.795   7.614 -1.2820  0.0076 -0.9997
10749SOL    HW233689   2.300   5.855   7.492 -1.0438 -0.5995 -1.1736
10750SOL     OW33690   2.908   7.416   5.974  0.1948  0.0892 -0.1431
10750SOL    HW133691   2.918   7.428   6.068  2.0710 -1.5233 -0.0651
10750SOL    HW233692   2.860   7.493   5.944 -3.3241 -0.8054  2.5401
10751SOL     OW33693   2.461   0.677   7.152  0.5049 -0.1772 -0.3781
10751SOL    HW133694   2.478   0.585   7.170  0.7621  0.1939  1.4535
10751SOL    HW233695   2.369   0.680   7.126  0.2765 -0.8604  0.3226
10752SOL     OW33696   2.070   6.545   8.543 -0.2931 -0.0442  0.0313
10752SOL    HW133697   2.114   6.489   8.478  0.8620  0.7538  0.1127
10752SOL    HW233698   2.137   6.605   8.573 -1.4660  1.2941  0.0860
10753SOL     OW33699   2.229   5.600   6.908  0.0711 -0.0086  0.3952
10753SOL    HW133700   2.275   5.682   6.927 -1.8386  1.4687 -1.0932
10753SOL    HW233701   2.186   5.615   6.824 -0.2236 -2.6072  0.0155
10754SOL     OW33702   2.514   5.861   5.485  0.9220  0.4138 -0.1616
10754SOL    HW133703   2.554   5.896   5.406  0.0112  0.5626 -0.5759
10754SOL    HW233704   2.587   5.826   5.536  1.6398  1.2469 -0.5867
10755SOL     OW33705   1.725   5.598   6.222 -0.1479 -0.0686 -0.2475
10755SOL    HW133706   1.721   5.694   6.220 -2.2271 -0.0989 -2.4010
10755SOL    HW233707   1.737   5.573   6.130  1.0763 -1.8816  0.3620
10756SOL     OW33708   2.542   7.695   6.889 -0.9088 -0.0253 -0.5334
10756SOL    HW133709   2.546   7.786   6.858 -0.1552 -0.1560 -0.8365
10756SOL    HW233710   2.454   7.666   6.865 -0.5517  0.0656 -2.0654
10757SOL     OW33711   1.958   7.319   7.046 -0.1620  0.6314  0.3009
10757SOL    HW133712   1.975   7.225   7.049  1.2334  0.8486 -0.2638
10757SOL    HW233713   1.862   7.326   7.043 -0.3072 -0.7381  1.0660
10758SOL     OW33714   3.288   6.364   5.029  0.2790  0.1003 -0.7813
10758SOL    HW133715   3.219   6.301   5.008  0.4560 -0.3891  0.0739
10758SOL    HW233716   3.247   6.425   5.090  0.8596 -0.7790  0.5374
10759SOL     OW33717   3.151   7.104   4.123  0.3446 -0.3876 -0.0064
10759SOL    HW133718   3.245   7.089   4.132  0.4115 -0.9591 -1.3402
10759SOL    HW233719   3.113   7.016   4.120 -0.0800 -0.1910 -0.6905
10760SOL     OW33720   3.407   6.626   5.809 -0.2217 -0.5437  0.4151
10760SOL    HW133721   3.362   6.655   5.889  0.3771 -0.0181  0.5757
10760SOL    HW233722   3.340   6.579   5.759 -0.9033  0.0861  0.7116
10761SOL     OW33723   2.194   6.567   3.900 -0.3672 -0.8113 -0.4515
10761SOL    HW133724   2.273   6.516   3.914 -0.0933 -0.1331  0.5844
10761SOL    HW233725   2.200   6.639   3.963 -1.7514 -0.6778 -0.4431
10762SOL     OW33726   4.308   7.442   6.469 -0.2685  0.1681 -0.6933
10762SOL    HW133727   4.242   7.387   6.511 -1.8764  1.4230 -1.4564
10762SOL    HW233728   4.317   7.407   6.381 -0.1437  0.1824 -0.6865
10763SOL     OW33729   2.710   6.026   3.857 -0.2481 -0.3224  0.3676
10763SOL    HW133730   2.726   6.018   3.763  1.2552  0.7965  0.4873
10763SOL    HW233731   2.779   5.973   3.897  0.0307  0.3850  0.8473
10764SOL     OW33732   3.828   5.379   7.020 -0.0155 -0.2063  0.7204
10764SOL    HW133733   3.820   5.294   6.975 -0.7392  0.6957 -0.9527
10764SOL    HW233734   3.860   5.438   6.952  2.1837  0.5206  2.3165
10765SOL     OW33735   6.342   7.892   5.634  0.0624 -0.3452  0.3120
10765SOL    HW133736   6.350   7.869   5.727 -1.0449 -0.1631  0.4693
10765SOL    HW233737   6.432   7.894   5.602  0.3664 -3.1310  0.7223
10766SOL     OW33738   3.066   4.788   6.502 -0.1235 -0.5960 -0.1915
10766SOL    HW133739   3.037   4.719   6.561 -1.4361 -0.1005 -0.2345
10766SOL    HW233740   3.160   4.773   6.492 -0.1986 -1.7195  0.6464
10767SOL     OW33741   2.485   5.326   4.864 -0.3815  0.0963 -0.3521
10767SOL    HW133742   2.470   5.288   4.778  0.8285 -0.5124 -0.3009
10767SOL    HW233743   2.488   5.420   4.849  1.1904 -0.0730 -1.1993
10768SOL     OW33744   3.007   5.920   7.074 -0.3375 -0.4576  0.0533
10768SOL    HW133745   3.073   5.978   7.035 -0.6231  0.5164  0.9617
10768SOL    HW233746   3.054   5.877   7.145 -0.1060 -1.4138 -0.6688
10769SOL     OW33747   3.503   6.338   4.235  0.0956 -0.5282  0.4918
10769SOL    HW133748   3.508   6.393   4.312  0.1931 -0.4295  0.4142
10769SOL    HW233749   3.445   6.266   4.261 -0.9105  0.1686  0.2572
10770SOL     OW33750   2.021   6.201   7.070 -0.2538  0.4991  0.1455
10770SOL    HW133751   1.952   6.211   7.135 -1.9128 -1.7819 -1.1033
10770SOL    HW233752   2.094   6.163   7.119 -0.5008  1.2908  1.1563
10771SOL     OW33753   3.736   6.065   4.413  0.1227  0.2419  0.4354
10771SOL    HW133754   3.732   6.073   4.318 -1.6892 -1.1283  0.3281
10771SOL    HW233755   3.829   6.074   4.435  0.3058  3.1709 -1.1558
10772SOL     OW33756   3.963   5.432   7.498  0.2254 -0.0498 -0.6989
10772SOL    HW133757   4.053   5.428   7.466 -0.2878 -1.8462 -2.1230
10772SOL    HW233758   3.912   5.463   7.423 -0.5535 -0.8463 -0.5243
10773SOL     OW33759   1.823   4.719   7.019  0.5859 -0.3824  0.2242
10773SOL    HW133760   1.904   4.753   6.982 -0.3264  0.0465 -1.4352
10773SOL    HW233761   1.815   4.630   6.983 -0.2959  0.0309 -0.6384
10774SOL     OW33762   3.374   6.017   4.940 -0.3178 -0.0654 -0.6266
10774SOL    HW133763   3.289   6.060   4.952  1.0755  2.7411  0.0721
10774SOL    HW233764   3.402   6.043   4.852  1.4920  2.5132  0.5745
10775SOL     OW33765   3.325   0.417   6.790 -0.6479  0.0198 -0.7569
10775SOL    HW133766   3.350   0.348   6.851  0.9365 -0.1028 -1.4919
10775SOL    HW233767   3.254   0.379   6.738 -0.5659 -0.6445 -0.3917
10776SOL     OW33768   2.338   6.391   3.208  0.7064 -0.3515  0.2092
10776SOL    HW133769   2.415   6.372   3.261  1.4444 -1.1653 -1.0931
10776SOL    HW233770   2.279   6.318   3.225 -0.3539  0.8732  2.1390
10777SOL     OW33771   3.791   6.121   6.000  0.0168 -0.4147 -0.2448
10777SOL    HW133772   3.806   6.181   5.927  1.6273 -0.8239 -0.2800
10777SOL    HW233773   3.800   6.034   5.962 -0.4713 -0.6523  0.1741
10778SOL     OW33774   4.045   0.053   6.756 -0.1301  0.2889 -0.0769
10778SOL    HW133775   4.068   0.095   6.673 -0.3251  0.1187 -0.2192
10778SOL    HW233776   4.046   0.124   6.820 -0.3134  0.4828 -0.2868
10779SOL     OW33777   1.988   6.516   5.534 -0.0648 -0.3087 -0.2899
10779SOL    HW133778   1.943   6.464   5.600 -2.6237  0.5692 -1.2111
10779SOL    HW233779   1.996   6.458   5.458 -0.6880 -0.1381 -0.4929
10780SOL     OW33780   3.556   5.525   5.653  0.5170  0.2971 -0.3824
10780SOL    HW133781   3.495   5.452   5.641  0.7705  0.0976 -0.4749
10780SOL    HW233782   3.623   5.492   5.712  1.2811  0.0498 -1.3564
10781SOL     OW33783   2.679   6.259   8.107  0.2804 -0.0293  0.3680
10781SOL    HW133784   2.731   6.329   8.146  1.0646  0.0219 -0.7143
10781SOL    HW233785   2.714   6.250   8.018 -1.7498  0.2136 -0.5228
10782SOL     OW33786   3.663   6.977   5.300 -0.8262 -0.1080 -0.8718
10782SOL    HW133787   3.662   6.884   5.325 -0.3626  0.6627  2.5644
10782SOL    HW233788   3.571   7.004   5.306 -0.7550  0.0030 -0.0829
10783SOL     OW33789   3.890   6.585   4.174  0.2154  0.3713  0.7661
10783SOL    HW133790   3.797   6.562   4.169  0.4697 -0.4147 -1.5276
10783SOL    HW233791   3.905   6.643   4.100  1.7180 -0.1936  0.5901
10784SOL     OW33792   3.062   6.241   8.127 -0.4503 -0.5665 -0.2824
10784SOL    HW133793   3.156   6.235   8.111 -0.4701  0.0415 -0.6862
10784SOL    HW233794   3.024   6.172   8.074 -0.1190 -1.8912  1.1322
10785SOL     OW33795   4.092   6.036   7.076  0.2115 -0.0723  0.5185
10785SOL    HW133796   3.997   6.048   7.072  0.2885  0.9676  1.3850
10785SOL    HW233797   4.119   6.031   6.985 -0.5285  0.9671  0.2214
10786SOL     OW33798   3.339   5.721   7.122  0.4661  0.4119  0.2714
10786SOL    HW133799   3.312   5.655   7.058  0.6796 -0.1472  0.7531
10786SOL    HW233800   3.383   5.788   7.069 -1.4635  1.1533 -0.4828
10787SOL     OW33801   2.875   6.336   5.265 -0.5371 -0.0963  0.2594
10787SOL    HW133802   2.837   6.399   5.327  0.1899  0.9659 -0.3517
10787SOL    HW233803   2.816   6.337   5.190  0.8163  1.8967 -0.8882
10788SOL     OW33804   3.752   6.640   4.891  0.4955 -0.1027 -0.2926
10788SOL    HW133805   3.750   6.712   4.828  2.1796 -0.5261 -0.9100
10788SOL    HW233806   3.754   6.561   4.837  2.5620 -0.4584  0.1987
10789SOL     OW33807   4.974   6.606   4.750  0.3309  0.1660 -0.4560
10789SOL    HW133808   5.037   6.665   4.791 -0.8080  1.8192 -0.9660
10789SOL    HW233809   4.982   6.524   4.798  3.1474  0.1657 -0.7721
10790SOL     OW33810   2.878   5.767   4.909  0.1348  0.4000  0.3121
10790SOL    HW133811   2.866   5.799   4.819  0.5686 -0.5292 -0.0904
10790SOL    HW233812   2.817   5.818   4.961 -1.4496 -0.2997 -0.7811
10791SOL     OW33813   4.120   5.608   6.355  0.7485  0.5929  0.0486
10791SOL    HW133814   4.082   5.527   6.321  1.4591  0.5221 -0.6003
10791SOL    HW233815   4.049   5.649   6.404  0.5021 -0.6348  0.7567
10792SOL     OW33816   2.860   6.566   7.992  0.0015  0.2710 -0.1610
10792SOL    HW133817   2.893   6.644   8.036  0.4756  1.1505 -1.9803
10792SOL    HW233818   2.855   6.500   8.061  2.0696  1.1670  0.9333
10793SOL     OW33819   0.270   5.711   7.370 -0.1739 -0.0037 -0.5043
10793SOL    HW133820   0.283   5.621   7.403 -0.9589 -0.2701 -0.9052
10793SOL    HW233821   0.356   5.735   7.335  0.6887  0.2564  1.6002
10794SOL     OW33822   2.943   5.287   5.167 -0.9169 -0.1432  0.6153
10794SOL    HW133823   2.949   5.192   5.183  3.0248  0.1460  1.8521
10794SOL    HW233824   2.997   5.301   5.090 -1.3081  1.1443  0.5587
10795SOL     OW33825   1.352   4.384   6.932  0.6311 -0.3544 -0.3144
10795SOL    HW133826   1.300   4.321   6.881  0.4481 -0.9146  0.5340
10795SOL    HW233827   1.437   4.341   6.944  0.2036 -0.8941  1.0650
10796SOL     OW33828   1.826   6.968   6.121 -0.1057 -0.9449 -0.3455
10796SOL    HW133829   1.760   6.932   6.061 -3.1524  2.8548  0.3264
10796SOL    HW233830   1.777   6.988   6.200  2.7819 -1.2932  1.6782
10797SOL     OW33831   2.085   5.670   6.662  0.1304  0.0057 -0.2971
10797SOL    HW133832   2.100   5.741   6.599  1.0156 -0.5670 -0.7516
10797SOL    HW233833   1.990   5.659   6.664  0.0005  1.0776 -0.3555
10798SOL     OW33834   4.488   6.731   6.466 -0.6522  0.4597 -0.3392
10798SOL    HW133835   4.437   6.672   6.520  1.9125 -0.1925  1.5430
10798SOL    HW233836   4.530   6.674   6.402  2.6094 -0.1398  2.0868
10799SOL     OW33837   2.822   7.058   7.879  0.4500 -0.1804  0.0892
10799SOL    HW133838   2.817   7.035   7.972  0.9148 -0.3125  0.0833
10799SOL    HW233839   2.779   6.986   7.834  1.3661 -0.7599  0.1157
10800SOL     OW33840   4.033   5.493   6.021 -0.2209 -0.7094 -0.2710
10800SOL    HW133841   3.986   5.489   5.938 -1.4800  1.7569  0.2554
10800SOL    HW233842   3.968   5.470   6.087 -0.2314  0.9518  0.3190
10801SOL     OW33843   1.693   7.248   7.092  0.3967 -0.2893  0.3640
10801SOL    HW133844   1.602   7.219   7.096  0.7672 -1.4381  0.7266
10801SOL    HW233845   1.734   7.190   7.028  0.4511  1.5040 -1.3308
10802SOL     OW33846   2.393   0.040   6.340 -0.3128 -0.4137  0.1731
10802SOL    HW133847   2.361  -0.009   6.416  1.1881 -1.6287  0.0678
10802SOL    HW233848   2.420  -0.027   6.277  0.9835  0.5477 -0.3485
10803SOL     OW33849   2.192   6.013   4.799  0.1482 -0.2913 -0.4364
10803SOL    HW133850   2.129   6.005   4.727  1.1089 -0.3142 -1.2961
10803SOL    HW233851   2.252   6.082   4.771 -0.7091  1.2592  1.3172
10804SOL     OW33852   4.220   6.531   7.382 -0.6760 -0.8719  0.2414
10804SOL    HW133853   4.314   6.518   7.379 -0.5130  0.3797 -0.7188
10804SOL    HW233854   4.207   6.602   7.445 -0.9323 -0.7083  0.0093
10805SOL     OW33855   2.351   5.664   6.369 -0.2308  0.1028 -0.8581
10805SOL    HW133856   2.445   5.645   6.362 -0.2689 -0.1846 -0.5956
10805SOL    HW233857   2.335   5.730   6.301  0.3939  1.0656 -0.0826
10806SOL     OW33858   1.938   5.397   5.898  0.0669 -0.4479 -0.0621
10806SOL    HW133859   2.021   5.397   5.945  0.2708  0.6688 -0.3752
10806SOL    HW233860   1.953   5.341   5.822  0.5892 -0.1261 -0.1993
10807SOL     OW33861   2.422   7.047   6.398 -0.0112  0.0924  0.6890
10807SOL    HW133862   2.361   7.114   6.427 -1.7928 -1.2295  0.1363
10807SOL    HW233863   2.436   7.066   6.305 -0.5376 -0.3018  0.5257
10808SOL     OW33864   2.990   4.939   6.841 -0.3441  0.1973  0.1969
10808SOL    HW133865   3.080   4.950   6.812  0.0493 -0.7031  1.0230
10808SOL    HW233866   2.996   4.884   6.919 -1.6875 -0.7721 -0.3335
10809SOL     OW33867   3.060   0.786   6.197  0.4103 -0.4817 -0.6046
10809SOL    HW133868   3.103   0.815   6.277 -1.2286  0.0314  0.1234
10809SOL    HW233869   2.973   0.758   6.225 -1.1253  1.9623 -2.4502
10810SOL     OW33870   1.271   6.114   6.085 -0.4067 -0.0687 -0.4409
10810SOL    HW133871   1.301   6.096   5.996  0.7609  0.6841 -0.2333
10810SOL    HW233872   1.349   6.148   6.130 -1.2258  0.5440  0.5793
10811SOL     OW33873   2.304   6.284   6.879  0.0576  0.2299  0.2093
10811SOL    HW133874   2.347   6.359   6.837  0.0953  0.9741  1.5253
10811SOL    HW233875   2.248   6.323   6.945 -0.5872 -0.8795  0.3376
10812SOL     OW33876   2.314   6.189   5.358  0.2832  0.5510  0.3432
10812SOL    HW133877   2.365   6.118   5.319  1.1944  0.4298  1.6710
10812SOL    HW233878   2.329   6.264   5.300  0.0945 -0.0753 -0.5372
10813SOL     OW33879   1.135   1.987   5.056  0.0989  0.6783 -0.8010
10813SOL    HW133880   1.090   1.916   5.009 -0.9289  1.0603 -0.4256
10813SOL    HW233881   1.090   1.991   5.141  0.5493  1.3791 -0.5919
10814SOL     OW33882   2.131   5.237   3.052 -0.2772  0.4614 -0.2867
10814SOL    HW133883   2.129   5.331   3.032 -1.6298  0.7619  1.0676
10814SOL    HW233884   2.079   5.229   3.132  0.2727 -1.3826 -0.0795
10815SOL     OW33885   3.938   7.405   7.352 -0.1146  0.2190  0.1724
10815SOL    HW133886   3.996   7.449   7.290  0.3494 -0.1646  0.3298
10815SOL    HW233887   3.990   7.332   7.387  0.0397  1.0645  1.8246
10816SOL     OW33888   3.894   6.646   4.455 -0.5283  0.2685  0.1037
10816SOL    HW133889   3.832   6.580   4.482  1.4702 -1.3313  1.0318
10816SOL    HW233890   3.897   6.639   4.359 -1.6859  0.3663  0.0415
10817SOL     OW33891   3.104   5.283   4.953  0.3046  0.1026  0.1856
10817SOL    HW133892   3.187   5.316   4.918 -0.1081  0.3268 -0.6085
10817SOL    HW233893   3.100   5.193   4.922  0.1887  0.1290  0.1283
10818SOL     OW33894   4.373   7.755   5.627  0.5175 -0.0097 -0.5355
10818SOL    HW133895   4.432   7.779   5.698  0.4237 -1.1361 -0.0628
10818SOL    HW233896   4.310   7.828   5.622  1.8152  1.1360 -0.9509
10819SOL     OW33897   3.222   5.388   4.340 -0.2922 -0.1885 -0.0147
10819SOL    HW133898   3.246   5.385   4.432  0.1264  0.2556 -0.1082
10819SOL    HW233899   3.274   5.319   4.299 -0.4524 -0.3620  0.0711
10820SOL     OW33900   1.940   5.833   6.172  0.2996  0.6892  0.2107
10820SOL    HW133901   1.973   5.823   6.262  0.0504  0.8039  0.3163
10820SOL    HW233902   1.845   5.829   6.181  0.2907 -1.2818 -0.2691
10821SOL     OW33903   2.831   5.980   5.075 -0.1348 -0.1878 -0.5743
10821SOL    HW133904   2.888   5.945   5.144 -0.9652 -0.3767  0.0272
10821SOL    HW233905   2.891   6.024   5.015  0.7125 -0.9458 -0.2979
10822SOL     OW33906   3.224   4.295   7.123 -0.2359  0.5196 -0.1428
10822SOL    HW133907   3.273   4.257   7.196 -0.5867  1.4571  0.6198
10822SOL    HW233908   3.244   4.240   7.048 -1.9879 -2.1636  1.2088
10823SOL     OW33909   2.719   0.223   5.964 -0.5128 -0.4469  0.0718
10823SOL    HW133910   2.765   0.160   6.020 -0.8406 -1.4514 -0.7449
10823SOL    HW233911   2.754   0.207   5.877 -1.5209 -0.3912 -0.3602
10824SOL     OW33912   3.652   6.345   6.307 -0.4918 -0.2632  0.7619
10824SOL    HW133913   3.648   6.301   6.392 -0.4026 -2.6556 -0.3802
10824SOL    HW233914   3.744   6.340   6.282 -0.8423 -1.5952 -0.4034
10825SOL     OW33915   2.192   5.852   5.462  0.8193  0.0756 -0.1343
10825SOL    HW133916   2.171   5.813   5.547 -0.1023  0.1103 -0.3337
10825SOL    HW233917   2.280   5.888   5.473  1.3926 -1.4037  0.2783
10826SOL     OW33918   1.755   7.042   5.787 -0.1389 -0.0738 -0.4939
10826SOL    HW133919   1.850   7.028   5.792 -0.2211 -0.4450  0.1445
10826SOL    HW233920   1.745   7.137   5.791  0.1885 -0.0479 -0.2334
10827SOL     OW33921   3.392   7.622   6.889 -0.4778  0.6984 -0.5683
10827SOL    HW133922   3.313   7.568   6.896 -0.0908  0.3544  2.3069
10827SOL    HW233923   3.464   7.559   6.894 -0.0374  1.2690  0.5782
10828SOL     OW33924   2.521   5.506   5.125  0.0333 -0.1868  0.7009
10828SOL    HW133925   2.520   5.487   5.031 -1.2711 -0.5100  0.7623
10828SOL    HW233926   2.493   5.597   5.131 -0.6159 -0.3936  0.8186
10829SOL     OW33927   2.315   6.340   6.279  0.1104 -0.8634  0.0223
10829SOL    HW133928   2.363   6.278   6.335 -0.9858 -2.7568 -1.0400
10829SOL    HW233929   2.355   6.330   6.193 -0.4930 -0.5424 -0.2979
10830SOL     OW33930   3.457   6.357   6.605 -0.5226  0.0889  0.9070
10830SOL    HW133931   3.543   6.323   6.629 -0.9262 -1.5856  0.1388
10830SOL    HW233932   3.471   6.451   6.595  1.2859 -0.1683  0.5772
10831SOL     OW33933   1.722   7.839   7.901 -0.3137  0.4067 -0.0399
10831SOL    HW133934   1.760   7.810   7.983 -0.8965 -0.8265 -0.1943
10831SOL    HW233935   1.628   7.823   7.910 -0.4371  0.6326 -0.8010
10832SOL     OW33936   2.980   0.943   5.960 -0.6465  0.8111  0.0540
10832SOL    HW133937   2.929   1.004   6.013 -0.0343  0.4894  1.0612
10832SOL    HW233938   3.021   0.884   6.024  0.3519  0.5806 -0.7575
10833SOL     OW33939   2.799   7.317   6.514  0.1348  0.6522  0.4964
10833SOL    HW133940   2.757   7.241   6.474  1.5379 -0.2247  0.6199
10833SOL    HW233941   2.826   7.286   6.601 -0.0313  1.5598  0.8843
10834SOL     OW33942   3.988   7.738   7.853  0.3758  0.2826  0.4729
10834SOL    HW133943   3.952   7.826   7.863  0.6642  0.4654 -0.1009
10834SOL    HW233944   4.043   7.743   7.775  0.7028 -0.3050  0.6624
10835SOL     OW33945   3.042   5.174   6.279  0.0291  0.1921 -0.5505
10835SOL    HW133946   2.990   5.218   6.346  0.5421  1.1745 -0.7786
10835SOL    HW233947   3.113   5.131   6.327  0.0875  0.4399 -0.4141
10836SOL     OW33948   1.992   6.064   5.499  0.4919  0.5694 -0.6737
10836SOL    HW133949   2.038   5.981   5.483 -0.3184  0.1789 -1.0599
10836SOL    HW233950   1.991   6.072   5.595  0.2447 -0.0663 -0.6158
10837SOL     OW33951   3.019   5.003   5.830 -0.3433  0.0602  0.2732
10837SOL    HW133952   3.088   5.043   5.777 -0.1540 -0.0528  0.4328
10837SOL    HW233953   3.038   5.031   5.919 -0.2889 -0.2718  0.3668
10838SOL     OW33954   1.727   5.539   5.970 -0.1319  0.2487  0.0676
10838SOL    HW133955   1.734   5.599   5.895  1.8873  2.1622  1.6778
10838SOL    HW233956   1.801   5.479   5.959  0.7557  1.1377  0.9666
10839SOL     OW33957   3.248   6.704   5.417 -0.4836  0.0256 -0.2938
10839SOL    HW133958   3.211   6.625   5.376  0.3346 -1.2132  1.2362
10839SOL    HW233959   3.324   6.672   5.465 -0.3035  1.7246  0.6315
10840SOL     OW33960   2.918   6.664   8.463  0.6411  0.1485  0.1092
10840SOL    HW133961   2.915   6.746   8.512 -0.7979  0.2274 -0.0560
10840SOL    HW233962   2.866   6.603   8.515  1.3073 -0.5260 -0.0059
10841SOL     OW33963   1.072   7.204   5.650  0.0170  0.0581  0.3257
10841SOL    HW133964   1.071   7.111   5.673  1.0714 -0.0111  0.1483
10841SOL    HW233965   1.036   7.248   5.728 -0.5411 -0.4911  0.3867
10842SOL     OW33966   2.117   4.824   7.668 -0.0583  0.3842  0.1070
10842SOL    HW133967   2.153   4.746   7.710  2.2013  1.8170  0.9604
10842SOL    HW233968   2.076   4.873   7.740  1.3618  1.4866  0.2087
10843SOL     OW33969   3.160   5.620   4.211  0.0925 -0.6188  0.0169
10843SOL    HW133970   3.186   5.551   4.272 -2.1507 -2.1736 -0.6082
10843SOL    HW233971   3.157   5.699   4.264  1.5735 -1.2164  1.0654
10844SOL     OW33972   3.747   7.644   4.336  0.4715  0.6852 -0.5241
10844SOL    HW133973   3.771   7.706   4.405  1.1714 -0.6060  0.4411
10844SOL    HW233974   3.830   7.604   4.311  0.0624  0.3299 -1.3329
10845SOL     OW33975   3.732   6.922   5.989  0.4856 -0.6529  0.3523
10845SOL    HW133976   3.757   6.951   5.901 -1.2527 -0.4360 -0.1265
10845SOL    HW233977   3.657   6.977   6.012 -0.7916 -2.4853  0.8194
10846SOL     OW33978   3.006   6.673   4.470  0.5710 -0.0782 -0.2405
10846SOL    HW133979   3.017   6.595   4.524 -0.1963 -0.4275 -0.5894
10846SOL    HW233980   3.078   6.730   4.497 -0.3510  0.1801  1.8913
10847SOL     OW33981   1.001   5.678   7.301  0.1608  0.5706  0.1632
10847SOL    HW133982   1.080   5.700   7.352 -0.5789  0.2571  1.4835
10847SOL    HW233983   0.943   5.753   7.314 -0.6154 -0.1630  1.0111
10848SOL     OW33984   2.466   5.895   7.257  0.4035  0.4610 -0.3471
10848SOL    HW133985   2.524   5.912   7.183 -0.2935 -0.5555 -1.1584
10848SOL    HW233986   2.422   5.813   7.234 -0.4974  0.6125  0.7802
10849SOL     OW33987   1.309   4.924   7.526 -0.8326  0.2857 -0.2416
10849SOL    HW133988   1.382   4.944   7.585 -1.3116  0.8705  0.1629
10849SOL    HW233989   1.284   4.834   7.548  0.1182 -0.1186 -0.7670
10850SOL     OW33990   2.414   5.287   6.537 -0.1219 -0.7218  0.1468
10850SOL    HW133991   2.334   5.340   6.540 -0.3255 -1.0457  0.9388
10850SOL    HW233992   2.476   5.336   6.591  0.9702  0.6650 -2.2429
10851SOL     OW33993   3.226   6.621   6.596 -0.0471 -0.2458  0.3483
10851SOL    HW133994   3.153   6.650   6.650 -0.6201  0.4858 -0.7755
10851SOL    HW233995   3.185   6.581   6.519  0.7304 -0.1450 -0.1303
10852SOL     OW33996   2.267   7.562   5.691  0.6009  0.1298 -0.4520
10852SOL    HW133997   2.216   7.638   5.664 -1.5037 -1.1516 -0.3414
10852SOL    HW233998   2.291   7.581   5.782  0.1980  0.7360 -0.4647
10853SOL     OW33999   3.691   5.638   5.186  0.1508 -0.1534  0.3463
10853SOL    HW134000   3.610   5.604   5.148 -0.6890  2.9912 -0.9659
10853SOL    HW234001   3.750   5.649   5.111 -0.3462  2.9922  0.2816
10854SOL     OW34002   2.568   5.241   7.106 -0.5580 -0.7240 -0.2079
10854SOL    HW134003   2.500   5.292   7.063  0.1548 -0.4374 -1.0158
10854SOL    HW234004   2.594   5.175   7.042  0.6805 -0.1455 -0.3289
10855SOL     OW34005   0.561   7.399   7.564 -0.0789 -0.2394 -0.0532
10855SOL    HW134006   0.639   7.425   7.613 -0.0934  3.3042 -1.6024
10855SOL    HW234007   0.492   7.458   7.595 -1.4743 -1.5289 -0.5627
10856SOL     OW34008   3.955   5.617   4.559 -0.4247 -0.2589  0.2034
10856SOL    HW134009   4.047   5.612   4.533 -0.1596  0.1028  1.0348
10856SOL    HW234010   3.951   5.692   4.618 -1.1217 -0.6634  0.6796
10857SOL     OW34011   3.445   7.781   6.350  0.3869  0.0174 -0.1477
10857SOL    HW134012   3.379   7.724   6.390 -0.5891 -0.0514 -1.7737
10857SOL    HW234013   3.393   7.847   6.303  1.4959  1.1571  0.1893
10858SOL     OW34014   2.860   5.862   4.350 -0.2083  0.2255  0.4103
10858SOL    HW134015   2.835   5.775   4.380 -1.7923 -0.1723 -1.8396
10858SOL    HW234016   2.786   5.918   4.374 -0.4462  0.3593 -0.5791
10859SOL     OW34017   3.018   5.087   4.442 -0.1741  0.2291  0.5192
10859SOL    HW134018   3.083   5.032   4.398  2.1544  2.5210  0.8080
10859SOL    HW234019   2.956   5.025   4.479  1.1319 -2.0727 -0.8342
10860SOL     OW34020   3.084   5.547   5.202 -0.0934 -0.0408  0.5601
10860SOL    HW134021   3.015   5.495   5.161 -1.3011  1.4958  0.5504
10860SOL    HW234022   3.112   5.495   5.276 -0.2738 -1.3301 -0.2424
10861SOL     OW34023   1.848   6.542   8.040 -0.7491 -0.8495  0.3035
10861SOL    HW134024   1.777   6.606   8.041  0.8540  1.0398  1.2552
10861SOL    HW234025   1.884   6.544   8.128  1.4840 -0.4849 -0.5348
10862SOL     OW34026   2.440   0.683   5.406 -0.4148  0.4198  0.0064
10862SOL    HW134027   2.529   0.682   5.442 -0.8941  2.0811  1.3277
10862SOL    HW234028   2.441   0.755   5.342 -0.6669  0.0469 -0.4253
10863SOL     OW34029   1.011   6.213   8.179  0.1614  0.8001  0.0657
10863SOL    HW134030   1.080   6.277   8.195  0.7924 -0.2413  1.6820
10863SOL    HW234031   0.985   6.183   8.266 -0.9952 -0.2185 -0.6066
10864SOL     OW34032   2.143   5.927   4.502 -0.1143 -0.2481 -0.1820
10864SOL    HW134033   2.116   5.847   4.546 -0.0239 -0.7089 -0.9496
10864SOL    HW234034   2.083   5.934   4.427 -1.6598  1.6264  1.1122
10865SOL     OW34035   1.421   5.076   6.044 -0.2724 -0.0249 -0.0470
10865SOL    HW134036   1.340   5.103   6.001  0.5992  0.9432 -1.1453
10865SOL    HW234037   1.486   5.142   6.017  1.0579 -1.1766  0.2070
10866SOL     OW34038   2.798   5.880   4.658  0.4411  0.2298 -0.1398
10866SOL    HW134039   2.798   5.973   4.682  1.1448  0.0826  0.4430
10866SOL    HW234040   2.724   5.872   4.598 -0.8389  0.7972  1.2659
10867SOL     OW34041   2.362   5.801   4.667 -0.1455  0.2114  0.0067
10867SOL    HW134042   2.435   5.827   4.611  0.4228 -1.1608  0.0689
10867SOL    HW234043   2.321   5.883   4.694  0.0989  0.9343 -1.7107
10868SOL     OW34044   0.253   5.404   7.857 -0.7786 -0.2450 -0.3513
10868SOL    HW134045   0.324   5.445   7.907 -0.3421  2.7064 -2.9872
10868SOL    HW234046   0.298   5.343   7.798 -0.9277 -1.2899  0.5912
10869SOL     OW34047   2.166   5.023   6.323 -0.1332  0.1294 -0.0696
10869SOL    HW134048   2.099   4.995   6.261  0.3937 -0.7148 -0.2807
10869SOL    HW234049   2.132   5.104   6.361 -0.0307  1.2727 -2.2153
10870SOL     OW34050   3.774   3.818   7.180  0.3041  0.0238 -0.0412
10870SOL    HW134051   3.726   3.829   7.098  1.0617  1.9149 -0.2780
10870SOL    HW234052   3.866   3.818   7.155  0.5210 -0.4953  0.7170
10871SOL     OW34053   2.786   5.547   6.619 -0.1646 -0.5569  0.1844
10871SOL    HW134054   2.715   5.512   6.673  1.0763 -1.1995  1.4614
10871SOL    HW234055   2.866   5.519   6.663  0.9274  1.9396 -0.0305
10872SOL     OW34056   1.155   7.372   7.598 -0.3830  0.4176 -0.0548
10872SOL    HW134057   1.207   7.388   7.677  0.4288 -0.0156 -0.4938
10872SOL    HW234058   1.084   7.316   7.628 -1.3679  2.0450  0.8159
10873SOL     OW34059   2.501   7.905   6.135 -0.1621 -0.2231 -0.3914
10873SOL    HW134060   2.504   7.967   6.062 -0.9082 -0.6959 -0.8374
10873SOL    HW234061   2.592   7.876   6.145  0.0908  0.4850 -0.5668
10874SOL     OW34062   2.298   4.686   6.367  0.0121  0.2194  0.0365
10874SOL    HW134063   2.298   4.764   6.421 -2.5119  0.4340 -0.1486
10874SOL    HW234064   2.210   4.682   6.330 -1.4062 -4.6576  2.9397
10875SOL     OW34065   2.580   5.406   6.734  0.1498 -0.7090 -0.7014
10875SOL    HW134066   2.523   5.413   6.810  1.4085 -0.9843  0.3161
10875SOL    HW234067   2.622   5.320   6.744  0.9727 -0.3806 -1.2347
10876SOL     OW34068   3.023   5.324   7.426 -0.0309 -0.5930  0.4049
10876SOL    HW134069   2.963   5.303   7.355  0.9107 -1.0847 -0.2720
10876SOL    HW234070   3.092   5.259   7.419  2.1770  1.6800 -0.7587
10877SOL     OW34071   5.285   6.906   7.261 -0.3352  0.1116  0.4930
10877SOL    HW134072   5.243   6.847   7.198 -0.6656  1.6444 -0.7940
10877SOL    HW234073   5.344   6.960   7.207  0.7706  0.2321  1.7853
10878SOL     OW34074   2.255   5.284   5.785  0.9490  0.3775 -0.3033
10878SOL    HW134075   2.230   5.305   5.875  0.2513 -0.2212 -0.3496
10878SOL    HW234076   2.343   5.248   5.793  0.5279 -0.5475  0.2545
10879SOL     OW34077   4.065   6.691   5.943  0.0408  0.0105  0.2484
10879SOL    HW134078   4.094   6.647   6.023  0.8252  0.3007  0.1387
10879SOL    HW234079   4.091   6.632   5.872 -0.6570 -0.2483  0.1998
10880SOL     OW34080   1.131   7.503   7.341  0.1380 -0.6305  0.4767
10880SOL    HW134081   1.221   7.479   7.319  0.5904  0.9926  0.4499
10880SOL    HW234082   1.123   7.483   7.434  0.7567 -0.1439  0.6399
10881SOL     OW34083   2.612   5.249   6.334 -0.0997  0.8126  0.5575
10881SOL    HW134084   2.541   5.287   6.385 -1.0621 -1.8952  1.3775
10881SOL    HW234085   2.573   5.228   6.249  0.4381  1.6255  0.0905
10882SOL     OW34086   2.131   0.938   6.535 -0.1929 -0.4396  0.2549
10882SOL    HW134087   2.189   0.870   6.567  0.6747  0.5757  0.9291
10882SOL    HW234088   2.090   0.973   6.615  0.5855  0.8786  0.1005
10883SOL     OW34089   3.527   5.777   4.863 -0.0578  0.3494 -0.1139
10883SOL    HW134090   3.548   5.714   4.794  2.9157 -0.7576  1.5889
10883SOL    HW234091   3.462   5.732   4.917 -0.9594  0.4406 -1.0921
10884SOL     OW34092   1.639   7.313   7.670  0.2662  0.1528 -0.3809
10884SOL    HW134093   1.664   7.343   7.583  2.0847 -1.5414 -0.5118
10884SOL    HW234094   1.706   7.349   7.728  0.9401 -1.3472 -0.1804
10885SOL     OW34095   4.131   6.128   5.429  0.9473  0.0152 -0.1674
10885SOL    HW134096   4.043   6.160   5.410  0.4320  0.1276  2.2074
10885SOL    HW234097   4.188   6.202   5.407  0.0741  1.4013  1.9378
10886SOL     OW34098   4.470   7.204   5.230  0.0592  0.4032 -0.4438
10886SOL    HW134099   4.490   7.296   5.243 -0.3505  0.5986 -1.1637
10886SOL    HW234100   4.393   7.188   5.285  0.2890  0.4163 -0.1118
10887SOL     OW34101   1.769   6.803   7.086  0.2084  0.0350 -0.0468
10887SOL    HW134102   1.810   6.860   7.151 -2.3081  0.2282  1.5202
10887SOL    HW234103   1.691   6.769   7.130 -0.7098 -1.1818 -2.4250
10888SOL     OW34104   3.706   0.328   6.403 -0.4948  0.1369  0.0507
10888SOL    HW134105   3.730   0.239   6.380 -1.3557  0.4575 -2.3841
10888SOL    HW234106   3.771   0.355   6.468 -0.7745 -2.5270  1.5645
10889SOL     OW34107   1.895   5.635   7.101  0.1013  0.5176 -0.0723
10889SOL    HW134108   1.830   5.698   7.070 -1.5087  0.9126  3.5751
10889SOL    HW234109   1.845   5.554   7.115  0.0150  1.0085  3.4045
10890SOL     OW34110   2.712   0.736   5.501 -0.2456 -0.4535  0.4562
10890SOL    HW134111   2.796   0.738   5.548 -1.4144 -0.5041  2.6756
10890SOL    HW234112   2.691   0.828   5.485 -0.5580 -0.3488  1.4257
10891SOL     OW34113   5.262   6.314   5.731  0.0332  0.3241 -0.6111
10891SOL    HW134114   5.275   6.396   5.684 -0.1541  0.0367 -1.1743
10891SOL    HW234115   5.343   6.265   5.718 -0.4251 -0.2127 -1.5788
10892SOL     OW34116   3.121   7.152   7.223 -0.3301 -0.5937  0.1908
10892SOL    HW134117   3.076   7.078   7.265 -2.4321  0.4615 -0.0328
10892SOL    HW234118   3.074   7.229   7.256  0.2658  0.4866 -1.3935
10893SOL     OW34119   1.650   6.413   9.820 -0.2092 -0.5992  0.2849
10893SOL    HW134120   1.585   6.379   9.758 -0.6009 -0.8064  0.8010
10893SOL    HW234121   1.632   6.507   9.823 -0.5058 -0.6616  0.4510
10894SOL     OW34122   2.869   5.009   6.502  0.4352  0.0221 -0.4378
10894SOL    HW134123   2.797   4.947   6.506 -0.6811  1.3699  1.8057
10894SOL    HW234124   2.948   4.954   6.505 -0.4695 -1.3640 -1.0530
10895SOL     OW34125   3.659   5.955   6.635 -0.1973 -0.5039  0.2760
10895SOL    HW134126   3.596   5.958   6.564  2.0017  3.0959 -1.8003
10895SOL    HW234127   3.615   5.998   6.709 -1.1922 -0.7933 -0.1456
10896SOL     OW34128   2.819   6.804   6.804 -0.0548 -0.1337  0.8417
10896SOL    HW134129   2.726   6.782   6.802  0.4848 -2.7046  0.6917
10896SOL    HW234130   2.863   6.726   6.768  2.0591  1.6339 -0.6678
10897SOL     OW34131   2.131   6.997   6.485 -0.2963  0.0974 -0.4084
10897SOL    HW134132   2.204   6.953   6.527  0.3991  2.4047  0.9673
10897SOL    HW234133   2.144   6.981   6.391  0.0020 -2.3521 -0.0077
10898SOL     OW34134   2.572   5.931   6.499 -0.3623 -0.0677 -0.4878
10898SOL    HW134135   2.559   5.907   6.591  1.6453  0.9940  0.1279
10898SOL    HW234136   2.574   5.847   6.453  2.5580 -0.9992  1.0470
10899SOL     OW34137   3.013   0.001   5.397 -0.8776  0.3690  0.3053
10899SOL    HW134138   2.987  -0.019   5.487 -0.9771 -0.9765 -0.0115
10899SOL    HW234139   2.992  -0.078   5.347  1.1459  0.2702 -0.5037
10900SOL     OW34140   1.950   5.310   4.786 -0.2982  0.4901  0.2910
10900SOL    HW134141   1.956   5.338   4.878 -0.4853  0.1877  0.4001
10900SOL    HW234142   2.025   5.350   4.743 -0.1353  0.5263  0.6080
10901SOL     OW34143   3.787   1.461   6.648  0.2087  0.4044 -0.1325
10901SOL    HW134144   3.768   1.554   6.664  1.2759  0.3441  1.8312
10901SOL    HW234145   3.734   1.415   6.714  1.3873 -0.2148  0.3979
10902SOL     OW34146   0.875   5.935   7.290  0.4459  0.1493 -0.3120
10902SOL    HW134147   0.928   6.008   7.320 -0.2026  0.4763  0.0528
10902SOL    HW234148   0.794   5.975   7.257 -0.0377 -0.4151  0.1647
10903SOL     OW34149   3.070   6.701   6.851  0.1496  0.0983  0.2272
10903SOL    HW134150   3.078   6.680   6.944 -0.7015  0.0254  0.2933
10903SOL    HW234151   3.029   6.787   6.850 -0.5423 -0.2346 -0.0878
10904SOL     OW34152   3.475   6.226   5.902  0.0306  0.1178 -0.1484
10904SOL    HW134153   3.491   6.176   5.982 -0.2792 -0.0475 -0.1896
10904SOL    HW234154   3.551   6.208   5.846 -1.3194 -2.5488 -1.3172
10905SOL     OW34155   2.957   7.034   4.728 -0.2957 -0.3286  0.1498
10905SOL    HW134156   2.916   6.949   4.744  1.5642 -1.0123  1.6236
10905SOL    HW234157   2.968   7.039   4.633 -0.1133 -1.8863  0.0721
10906SOL     OW34158   4.140   7.708   5.879  0.2978  0.0196  0.6601
10906SOL    HW134159   4.173   7.619   5.863 -1.0548 -0.5774  1.0341
10906SOL    HW234160   4.151   7.721   5.973  0.1651  0.1018  0.6645
10907SOL     OW34161   2.844   5.800   5.879 -0.6121 -0.3753  0.0361
10907SOL    HW134162   2.871   5.867   5.816 -1.7532  0.4475  0.3920
10907SOL    HW234163   2.864   5.717   5.836  1.6047  0.1457 -0.0943
10908SOL     OW34164   2.116   5.712   5.246  0.5650 -0.5014  0.1309
10908SOL    HW134165   2.156   5.748   5.325 -0.4089 -0.1165  0.4634
10908SOL    HW234166   2.143   5.772   5.176 -1.8968  1.6129  0.8394
10909SOL     OW34167   7.755   6.286   6.993 -0.4680  0.2970  0.1104
10909SOL    HW134168   7.762   6.293   7.088  0.2946 -0.1848  0.0950
10909SOL    HW234169   7.716   6.200   6.977 -0.9086  0.5141 -0.0076
10910SOL     OW34170   2.246   3.329   7.736  0.1018  0.3014 -0.4965
10910SOL    HW134171   2.321   3.374   7.774 -0.1949 -0.3560  0.9410
10910SOL    HW234172   2.276   3.239   7.723 -0.5803 -0.1202  0.6512
10911SOL     OW34173   4.445   7.608   4.267 -0.3259 -0.3696  0.1304
10911SOL    HW134174   4.525   7.585   4.313 -0.1209  0.0636 -0.0107
10911SOL    HW234175   4.375   7.572   4.321 -0.0471 -0.5329  0.3798
10912SOL     OW34176   2.906   4.915   4.230 -0.3116  0.1793 -0.8001
10912SOL    HW134177   2.898   5.010   4.218  0.8603  0.3166 -0.6886
10912SOL    HW234178   2.998   4.903   4.256  0.2958 -1.2324 -3.3293
10913SOL     OW34179   1.906   4.799   3.590  0.2353  0.2945  0.5876
10913SOL    HW134180   1.901   4.706   3.611  1.6951 -0.2534 -1.2085
10913SOL    HW234181   1.997   4.822   3.606  0.1063  1.1699  0.1169
10914SOL     OW34182   3.944   6.861   3.036  0.4440  0.2432  0.1938
10914SOL    HW134183   3.917   6.953   3.043 -1.5653 -0.3073  0.4186
10914SOL    HW234184   4.036   6.865   3.011  0.6887  2.3143  1.1627
10915SOL     OW34185   2.939   5.333   7.717 -0.0761  0.1507 -1.1266
10915SOL    HW134186   2.972   5.314   7.630  3.2470 -1.9515  0.3742
10915SOL    HW234187   3.011   5.381   7.760 -2.7767  3.9588 -0.3343
10916SOL     OW34188   3.279   5.740   6.657  0.0218  0.1941 -0.7345
10916SOL    HW134189   3.274   5.698   6.743 -0.5359 -0.1348 -0.9206
10916SOL    HW234190   3.258   5.671   6.595  1.1946  0.2457 -1.1999
10917SOL     OW34191   2.009   6.098   6.830  0.7353 -0.2903 -0.1510
10917SOL    HW134192   2.019   6.146   6.913 -0.0369 -0.5690  0.1106
10917SOL    HW234193   1.996   6.166   6.764  2.2208 -0.0161 -0.1960
10918SOL     OW34194   1.717   5.379   5.263 -0.2294  0.2380 -0.2292
10918SOL    HW134195   1.634   5.415   5.291  0.5365  1.4438  0.5642
10918SOL    HW234196   1.770   5.455   5.238  0.7399 -0.4753 -0.4425
10919SOL     OW34197   1.656   5.858   7.054  0.1021  0.1864 -0.1064
10919SOL    HW134198   1.583   5.918   7.040  0.4047  0.4212 -0.7026
10919SOL    HW234199   1.651   5.836   7.147  0.4915  1.8116  0.3433
10920SOL     OW34200   4.526   4.857   6.428 -0.3654 -0.5340  0.1805
10920SOL    HW134201   4.560   4.907   6.502 -1.4602 -1.4568  1.3594
10920SOL    HW234202   4.582   4.779   6.424  0.7537  0.2867 -1.0684
10921SOL     OW34203   3.492   6.556   5.517 -0.6023 -0.5006 -0.0223
10921SOL    HW134204   3.497   6.600   5.602 -0.7407 -1.4941  0.5110
10921SOL    HW234205   3.464   6.467   5.538 -2.0271 -0.3781 -1.2245
10922SOL     OW34206   1.559   5.722   4.360  0.4251  0.2107  0.6184
10922SOL    HW134207   1.622   5.653   4.379 -0.2418 -0.5828  0.0258
10922SOL    HW234208   1.538   5.760   4.445  0.2494 -0.8057  1.0425
10923SOL     OW34209   4.144   6.445   4.280 -0.4976  0.0536  0.0211
10923SOL    HW134210   4.076   6.502   4.244 -0.9804  0.0465  0.8829
10923SOL    HW234211   4.095   6.380   4.332  0.1203 -0.4139  0.0256
10924SOL     OW34212   2.812   6.101   6.483  0.0973  0.4314 -0.5055
10924SOL    HW134213   2.845   6.046   6.553  0.3698 -0.0838 -1.0329
10924SOL    HW234214   2.723   6.069   6.468 -0.4057  1.3420  0.4216
10925SOL     OW34215   3.879   0.354   4.613 -0.2629 -0.0199  0.2017
10925SOL    HW134216   3.860   0.263   4.589 -1.3846 -0.1450  1.4129
10925SOL    HW234217   3.937   0.385   4.544 -2.5507 -0.6141 -2.1630
10926SOL     OW34218   2.439   6.760   4.786 -0.2890 -0.3854  0.3141
10926SOL    HW134219   2.496   6.776   4.710 -1.6627 -3.0430 -1.4311
10926SOL    HW234220   2.496   6.716   4.849  0.2964 -0.4257 -0.2222
10927SOL     OW34221   3.084   6.507   6.387 -0.0898  0.1788  0.4603
10927SOL    HW134222   3.011   6.447   6.373  0.0824  0.2973 -1.1289
10927SOL    HW234223   3.162   6.455   6.365  0.1206  0.7252 -0.1064
10928SOL     OW34224   2.589   7.607   4.823 -0.0435 -0.8267  0.2153
10928SOL    HW134225   2.562   7.526   4.867  0.0707 -0.4268  1.0414
10928SOL    HW234226   2.506   7.649   4.798 -0.1418 -0.7364  0.6653
10929SOL     OW34227   3.250   5.538   6.880  0.1131  0.9421  0.8519
10929SOL    HW134228   3.218   5.451   6.903 -1.3876  0.7713 -1.6012
10929SOL    HW234229   3.340   5.523   6.849  1.1470  0.8238  3.6391
10930SOL     OW34230   7.935   4.944   9.518  0.0827  0.1454 -0.1068
10930SOL    HW134231   7.871   4.891   9.566 -0.7645 -0.2462 -1.6195
10930SOL    HW234232   8.011   4.888   9.509  0.0863  0.0667  0.3917
10931SOL     OW34233   2.070   7.221   4.339 -0.3322  0.8524  0.4097
10931SOL    HW134234   2.004   7.211   4.407  0.1413 -3.0667  0.5104
10931SOL    HW234235   2.025   7.195   4.258  0.1281  1.7902 -0.1667
10932SOL     OW34236   2.935   7.518   5.473  0.6055  0.4207  0.1236
10932SOL    HW134237   2.840   7.525   5.480  0.3778 -2.2154  0.7651
10932SOL    HW234238   2.964   7.494   5.562  1.5847 -0.8716 -0.5070
10933SOL     OW34239   3.268   7.153   5.982  0.1114  0.2427  0.7904
10933SOL    HW134240   3.192   7.189   6.027 -1.8071  0.3952 -2.2397
10933SOL    HW234241   3.300   7.225   5.928  1.1909 -0.3763  0.5782
10934SOL     OW34242   1.718   6.716   4.690 -0.8763 -0.3762 -0.1968
10934SOL    HW134243   1.763   6.678   4.615  0.1655  1.0381 -0.3187
10934SOL    HW234244   1.733   6.654   4.761 -0.3681 -0.8697 -0.7263
10935SOL     OW34245   3.018   5.828   7.749  0.0584  0.0584 -0.0445
10935SOL    HW134246   2.923   5.815   7.757  0.3680 -2.3927  0.4272
10935SOL    HW234247   3.031   5.847   7.656 -0.8730  0.3247 -0.1379
10936SOL     OW34248   2.731   5.677   6.139 -0.1226 -0.0491  0.1560
10936SOL    HW134249   2.824   5.698   6.143  0.1457 -1.2511  0.7298
10936SOL    HW234250   2.700   5.720   6.059  0.6884  1.2215  0.4986
10937SOL     OW34251   1.109   6.707   7.303  0.5190  0.0143  0.0708
10937SOL    HW134252   1.202   6.711   7.283  0.5128  1.7930  0.2579
10937SOL    HW234253   1.066   6.722   7.218  0.4446  1.0597  0.2762
10938SOL     OW34254   3.336   5.421   4.875 -0.0661  0.1968  0.5600
10938SOL    HW134255   3.336   5.509   4.913  0.9113 -0.0697  1.2205
10938SOL    HW234256   3.422   5.386   4.898 -0.2297 -0.7170 -0.2024
10939SOL     OW34257   1.916   6.953   6.637  0.0763 -0.3229 -0.0319
10939SOL    HW134258   1.997   6.977   6.591 -0.6390  1.4653 -0.4199
10939SOL    HW234259   1.945   6.934   6.726  0.9018  0.5726 -0.0874
10940SOL     OW34260   3.044   7.793   7.164  0.1049 -0.2632  0.3677
10940SOL    HW134261   3.139   7.801   7.151 -0.1918  0.7732 -1.3151
10940SOL    HW234262   3.026   7.701   7.144  0.3648  0.2005 -2.2950
10941SOL     OW34263   3.815   7.692   5.410  0.2458 -0.2829  0.0622
10941SOL    HW134264   3.869   7.736   5.344  0.8174 -1.5958 -0.3833
10941SOL    HW234265   3.808   7.602   5.379 -1.6541 -0.3232  0.4651
10942SOL     OW34266   3.190   6.180   6.255 -0.3910  0.3440 -0.5134
10942SOL    HW134267   3.150   6.102   6.294 -1.3381  0.5728 -1.0059
10942SOL    HW234268   3.250   6.146   6.189 -1.1015  0.0283 -1.0121
10943SOL     OW34269   4.066   5.769   4.902 -0.3602  0.3103 -0.2018
10943SOL    HW134270   4.076   5.789   4.995 -0.4882 -0.7555  0.0505
10943SOL    HW234271   3.981   5.725   4.897 -0.1612 -0.0089 -0.7655
10944SOL     OW34272   4.633   7.073   5.667 -0.4549 -0.3368 -0.2326
10944SOL    HW134273   4.589   7.041   5.588 -0.9213  0.1243 -0.1730
10944SOL    HW234274   4.624   7.002   5.731 -3.2281  0.5709  0.5559
10945SOL     OW34275   2.988   4.325   3.644  0.1667  0.0499  0.4022
10945SOL    HW134276   3.082   4.326   3.625  0.7791 -0.1835  3.0380
10945SOL    HW234277   2.966   4.233   3.654 -0.1407  0.1575  0.7213
10946SOL     OW34278   2.768   0.489   5.975 -0.1778 -0.3717 -0.2380
10946SOL    HW134279   2.766   0.394   5.976 -0.7257 -0.3675  1.4948
10946SOL    HW234280   2.778   0.515   6.066  1.1731  1.2387 -0.7723
10947SOL     OW34281   0.860   5.166   8.416  0.5067 -0.4220  0.5079
10947SOL    HW134282   0.897   5.201   8.335 -1.4744  1.2392  0.2379
10947SOL    HW234283   0.841   5.074   8.396  0.3775 -0.1323 -0.7971
10948SOL     OW34284   1.365   6.183   8.538 -0.4330  0.1050 -0.0891
10948SOL    HW134285   1.383   6.222   8.624 -1.6944  0.1905  0.1434
10948SOL    HW234286   1.270   6.175   8.534 -0.2896 -2.9503 -0.1310
10949SOL     OW34287   2.879   5.620   9.391 -0.3667  0.0517 -0.4413
10949SOL    HW134288   2.959   5.597   9.343  0.4539 -0.3635  1.0720
10949SOL    HW234289   2.841   5.692   9.340  0.0210 -0.9027 -2.1445
10950SOL     OW34290   3.699   7.268   7.373 -0.5250  0.8595  0.4692
10950SOL    HW134291   3.772   7.319   7.339 -1.7765  1.0291 -2.2893
10950SOL    HW234292   3.729   7.177   7.369 -0.6975  0.8492 -1.5122
10951SOL     OW34293   1.979   5.956   9.251  0.0321  0.1562  0.8905
10951SOL    HW134294   2.044   6.004   9.301  0.6596 -0.6324  0.8412
10951SOL    HW234295   1.896   5.976   9.295  0.3908  0.5929  1.3798
10952SOL     OW34296   0.713   6.512   6.906  0.5795  0.0396  0.3738
10952SOL    HW134297   0.661   6.471   6.837 -0.5399  0.7358  0.7863
10952SOL    HW234298   0.786   6.554   6.860 -1.4786  2.6845 -0.7452
10953SOL     OW34299   2.185   6.505   8.148 -0.3736 -0.0147 -0.6118
10953SOL    HW134300   2.254   6.512   8.082 -0.9265 -0.4660 -1.2551
10953SOL    HW234301   2.128   6.435   8.115 -1.6211  0.9459 -0.5463
10954SOL     OW34302   2.871   7.850   9.015  0.3080  0.3323  0.3032
10954SOL    HW134303   2.895   7.943   9.011  1.3092  0.1546  1.5680
10954SOL    HW234304   2.953   7.803   9.003  0.0526 -0.3625  1.1293
10955SOL     OW34305   2.198   6.123   8.725 -0.2029 -0.1987 -0.1277
10955SOL    HW134306   2.123   6.155   8.674 -0.3109  0.8554  0.6542
10955SOL    HW234307   2.267   6.187   8.709 -0.1922  0.0643  0.9052
10956SOL     OW34308   4.267   5.014  10.537 -0.4130 -0.4458  0.1411
10956SOL    HW134309   4.250   4.935  10.589 -0.8931  0.3435  1.2267
10956SOL    HW234310   4.269   4.983  10.446 -1.4181 -1.5878  0.4763
10957SOL     OW34311   1.504   7.511   8.725  0.5993 -0.4725 -0.0776
10957SOL    HW134312   1.581   7.568   8.723 -0.5630  1.1700 -1.5891
10957SOL    HW234313   1.477   7.510   8.817  1.8027 -0.2215  0.2988
10958SOL     OW34314   0.793   6.589   8.418  0.1680  0.2018 -0.5249
10958SOL    HW134315   0.737   6.584   8.340  0.5122  0.0200 -0.7604
10958SOL    HW234316   0.866   6.645   8.392  0.5913 -0.3495 -0.5222
10959SOL     OW34317   1.034   6.407   7.081 -0.2277 -0.2449 -0.3516
10959SOL    HW134318   1.014   6.316   7.058  0.2004 -0.3146 -0.4528
10959SOL    HW234319   1.127   6.407   7.100 -0.2144  0.1896 -0.4109
10960SOL     OW34320   2.963   4.749   7.453 -0.3203  0.2600 -0.1872
10960SOL    HW134321   3.041   4.790   7.489 -0.5402  0.4919  0.0295
10960SOL    HW234322   2.996   4.680   7.395  0.0455  0.5087 -0.2752
10961SOL     OW34323   1.825   5.653   8.091  0.4845  0.3847 -0.3498
10961SOL    HW134324   1.795   5.564   8.108 -0.1953  0.3536 -1.5735
10961SOL    HW234325   1.756   5.692   8.037 -0.5977  2.5822  2.3291
10962SOL     OW34326   1.474   5.248   8.799  0.1280  0.1079  0.1538
10962SOL    HW134327   1.566   5.243   8.826  0.0255 -1.4935  0.2897
10962SOL    HW234328   1.458   5.166   8.752 -1.1760  0.4611 -0.0651
10963SOL     OW34329   2.998   6.641   7.468  0.1318  0.0315 -0.1486
10963SOL    HW134330   3.037   6.595   7.395  0.2669 -0.9061  0.5012
10963SOL    HW234331   2.911   6.667   7.437  0.5119  0.4035 -0.9235
10964SOL     OW34332   2.417   6.449   7.988  0.8393  0.3795 -0.3742
10964SOL    HW134333   2.464   6.434   7.906 -1.4112 -0.5428 -1.5730
10964SOL    HW234334   2.397   6.362   8.020  1.7119  0.7337  1.2280
10965SOL     OW34335   1.197   5.459   7.447  0.3902 -0.1527 -0.0242
10965SOL    HW134336   1.163   5.546   7.427 -1.8427 -0.6818  1.1961
10965SOL    HW234337   1.244   5.469   7.530 -0.1302 -0.1691  0.2723
10966SOL     OW34338   3.400   5.408  10.223  0.0896  0.2086 -0.4107
10966SOL    HW134339   3.330   5.473  10.233  0.8083  0.9506 -0.0862
10966SOL    HW234340   3.398   5.359  10.306 -0.2179  0.0444 -0.5122
10967SOL     OW34341   1.011   5.748   9.278  0.3276 -0.0861 -0.2422
10967SOL    HW134342   1.097   5.718   9.249  0.5914 -0.7566  1.1603
10967SOL    HW234343   0.968   5.668   9.311 -0.2692  0.4912  0.4100
10968SOL     OW34344   4.081   5.493   7.938 -0.4831 -0.1146  0.2009
10968SOL    HW134345   3.989   5.488   7.963 -0.5693  2.1208  0.5245
10968SOL    HW234346   4.080   5.511   7.844 -0.3635 -0.6902  0.0893
10969SOL     OW34347   1.966   6.483   6.973 -0.1551 -0.5662 -0.0254
10969SOL    HW134348   1.872   6.480   6.989  0.0487 -0.3495  1.2777
10969SOL    HW234349   2.005   6.483   7.060  0.9985  1.3274 -0.4995
10970SOL     OW34350   2.152   5.122   7.624  0.0425 -0.0828  0.1325
10970SOL    HW134351   2.137   5.204   7.577  2.2897  0.5276  0.3376
10970SOL    HW234352   2.158   5.149   7.716 -0.9495 -0.7583  0.4046
10971SOL     OW34353   3.008   6.315   8.714 -0.3316 -0.0712  0.0512
10971SOL    HW134354   3.090   6.286   8.674 -0.8971 -0.2907 -0.9755
10971SOL    HW234355   2.980   6.390   8.661 -0.0763  0.9262  1.2704
10972SOL     OW34356   0.162   7.288   8.464 -0.0059 -0.0628 -0.0869
10972SOL    HW134357   0.146   7.327   8.378  1.6150  0.9539  0.0321
10972SOL    HW234358   0.172   7.194   8.446  3.6917  0.4618 -1.6151
10973SOL     OW34359   2.750   7.947   7.543  0.2356  0.4333 -0.0952
10973SOL    HW134360   2.826   7.925   7.489  1.6353 -1.5299  2.4549
10973SOL    HW234361   2.755   8.042   7.554  1.7439  0.4597 -0.7624
10974SOL     OW34362   3.991   5.522  10.789  0.1787 -0.4061  0.2466
10974SOL    HW134363   4.050   5.593  10.813 -1.2986  1.6658 -1.7733
10974SOL    HW234364   4.027   5.488  10.706 -1.8611  1.6181 -1.6077
10975SOL     OW34365   0.733   5.291   8.056  0.2034  0.3173  0.1437
10975SOL    HW134366   0.739   5.203   8.020  1.0305  0.3269  0.2370
10975SOL    HW234367   0.808   5.298   8.115 -1.1542  0.2692  1.9571
10976SOL     OW34368   3.095   6.154  10.036 -0.1298 -0.3518  0.0688
10976SOL    HW134369   3.179   6.176  10.074 -0.7893 -0.4643  1.6722
10976SOL    HW234370   3.105   6.172   9.942  0.8702  2.0553  0.5773
10977SOL     OW34371   2.043   6.410   6.335  0.3400 -0.2352 -0.5196
10977SOL    HW134372   2.128   6.367   6.332 -0.3079 -1.5331 -1.6156
10977SOL    HW234373   2.010   6.405   6.245 -1.0657 -0.1734 -0.0405
10978SOL     OW34374   2.613   5.531  10.107 -0.2814 -0.5411 -0.2852
10978SOL    HW134375   2.706   5.540  10.128  0.1846 -2.4553 -1.3250
10978SOL    HW234376   2.568   5.572  10.181  1.3752  0.4169  0.2411
10979SOL     OW34377   2.794   5.849   9.252 -0.0266  0.4002 -1.1194
10979SOL    HW134378   2.814   5.930   9.298  3.4135  0.2300 -2.0025
10979SOL    HW234379   2.736   5.876   9.181  0.0182  1.8429 -0.6516
10980SOL     OW34380   2.773   7.634   8.773  0.1278  0.0725  0.0404
10980SOL    HW134381   2.720   7.611   8.697 -0.1764  2.2381 -0.4652
10980SOL    HW234382   2.733   7.585   8.845 -2.0633  0.8954 -0.5050
10981SOL     OW34383   3.986   5.847   6.040 -0.5093  0.2925 -0.0359
10981SOL    HW134384   3.904   5.835   5.992 -0.6398 -0.7644  0.4210
10981SOL    HW234385   3.974   5.797   6.120  0.3002  0.7555  0.3828
10982SOL     OW34386   1.927   5.731   9.088  0.0535 -0.5922 -0.0914
10982SOL    HW134387   1.956   5.667   9.153 -0.6633 -0.1744  0.6634
10982SOL    HW234388   1.933   5.815   9.134  0.9976 -0.1088 -1.0679
10983SOL     OW34389   3.134   5.466   7.854 -0.2857 -0.1413 -0.1197
10983SOL    HW134390   3.132   5.515   7.936 -0.5815 -1.0379  0.4135
10983SOL    HW234391   3.167   5.529   7.790 -2.3438  1.3221  0.1681
10984SOL     OW34392   2.969   0.738   6.493  0.1200 -0.8341 -0.4265
10984SOL    HW134393   3.055   0.780   6.484  1.0458 -2.8835 -1.8080
10984SOL    HW234394   2.989   0.645   6.507 -1.8777 -1.2120  0.2126
10985SOL     OW34395   2.900   7.916   9.894  0.1106 -0.1258 -0.1559
10985SOL    HW134396   2.857   7.943   9.812 -0.5507 -1.1853 -0.1690
10985SOL    HW234397   2.918   7.823   9.882 -2.9886 -1.1732  2.1485
10986SOL     OW34398   4.739   5.599   9.031 -0.0895  0.1684 -0.5003
10986SOL    HW134399   4.714   5.681   9.074 -0.9401  0.3034 -1.2275
10986SOL    HW234400   4.700   5.531   9.087  0.3678  0.2658 -0.0571
10987SOL     OW34401   2.819   6.745  10.072 -0.2695  0.1746  0.0981
10987SOL    HW134402   2.868   6.706  10.000  0.6140  0.6526  0.4231
10987SOL    HW234403   2.739   6.778  10.032  0.2228  0.4603 -0.6706
10988SOL     OW34404   4.455   5.450   8.142  0.3694 -0.2406 -0.0720
10988SOL    HW134405   4.461   5.499   8.224 -1.1794 -0.2090  0.0569
10988SOL    HW234406   4.410   5.509   8.082  1.9096 -0.0840 -1.1167
10989SOL     OW34407   2.918   5.991   8.991  0.2348 -0.0328 -0.2421
10989SOL    HW134408   2.992   6.001   9.051  1.2198 -0.4380 -1.3516
10989SOL    HW234409   2.950   6.027   8.908 -1.1522  0.6736 -0.5042
10990SOL     OW34410   2.456   6.538   7.512  0.5779 -0.4562 -0.1434
10990SOL    HW134411   2.366   6.521   7.541  0.1105 -0.5905 -1.5731
10990SOL    HW234412   2.506   6.463   7.544 -0.4521 -2.0039 -1.9784
10991SOL     OW34413   3.836   7.985   9.208  0.1715 -0.3656  0.2938
10991SOL    HW134414   3.778   7.941   9.146 -1.1006  1.6412 -0.0113
10991SOL    HW234415   3.923   7.976   9.169 -0.4508 -0.1072 -1.2220
10992SOL     OW34416   2.900   4.976   7.290  0.1542 -0.0311 -0.5606
10992SOL    HW134417   2.915   4.916   7.362 -1.6763  0.1274  0.0023
10992SOL    HW234418   2.857   5.052   7.330  0.7131  0.8413 -1.5482
10993SOL     OW34419   4.357   6.567   9.639 -0.2816 -0.2468 -0.7180
10993SOL    HW134420   4.377   6.492   9.694 -0.2614 -0.8854 -1.5768
10993SOL    HW234421   4.265   6.556   9.614 -0.6388  0.6633  0.1284
10994SOL     OW34422   2.548   6.200   8.680 -1.0032 -0.4291 -0.2869
10994SOL    HW134423   2.589   6.152   8.608  1.7235 -0.6738  1.3133
10994SOL    HW234424   2.577   6.155   8.759 -1.3986  1.6324  1.1160
10995SOL     OW34425   0.275   4.836   6.482 -0.1965  0.0243 -0.4128
10995SOL    HW134426   0.231   4.861   6.401  0.2645  1.6534 -0.2043
10995SOL    HW234427   0.325   4.915   6.507  2.2017 -1.4382 -0.2329
10996SOL     OW34428   2.450   6.470   6.688  0.2684  0.3546  0.1528
10996SOL    HW134429   2.399   6.494   6.611  1.1058 -1.0733 -0.8820
10996SOL    HW234430   2.541   6.489   6.664  0.6191 -0.8275  0.4700
10997SOL     OW34431   0.423   7.182   8.998  0.5525 -0.0843 -0.3134
10997SOL    HW134432   0.373   7.177   8.916  1.4298 -1.7620 -0.7818
10997SOL    HW234433   0.509   7.148   8.976  0.6837 -0.9650  1.4066
10998SOL     OW34434   2.554   5.596   7.063  0.0662  0.0687 -0.4262
10998SOL    HW134435   2.599   5.523   7.021  0.3832 -1.4850  2.4125
10998SOL    HW234436   2.621   5.663   7.074 -0.0253  0.5182 -2.2788
10999SOL     OW34437   3.687   7.628   7.235  0.6688  0.4191  0.2021
10999SOL    HW134438   3.723   7.717   7.238 -0.6629  0.9632  0.7943
10999SOL    HW234439   3.737   7.584   7.166  2.8544  0.9285  1.3750
11000SOL     OW34440   1.392   6.295   7.372 -0.1647 -0.2931  0.1990
11000SOL    HW134441   1.463   6.255   7.422  2.4483  1.7044 -1.5666
11000SOL    HW234442   1.409   6.269   7.281 -1.9059  0.0036 -0.2499
11001SOL     OW34443   3.895   7.251   8.913 -0.2068 -0.5981  0.0472
11001SOL    HW134444   3.933   7.317   8.972  2.1135 -3.1019  1.5471
11001SOL    HW234445   3.810   7.230   8.952 -1.2631  1.7504 -0.7654
11002SOL     OW34446   2.172   7.286   8.878 -0.3558  0.2243 -0.1954
11002SOL    HW134447   2.219   7.225   8.821 -0.5004 -1.2367  1.1427
11002SOL    HW234448   2.084   7.249   8.885 -0.7798  1.2044 -0.2056
11003SOL     OW34449   3.483   0.626   7.482 -0.0526 -0.0646  0.3153
11003SOL    HW134450   3.417   0.569   7.521 -0.6987  0.9744  0.7947
11003SOL    HW234451   3.536   0.655   7.557 -1.0397  1.6139  0.4159
11004SOL     OW34452   2.659   5.119   8.599  0.1030  0.1308  0.0475
11004SOL    HW134453   2.612   5.184   8.651  0.8844  2.0773 -1.5564
11004SOL    HW234454   2.726   5.169   8.553 -1.1396 -1.2475 -3.6000
11005SOL     OW34455   2.643   6.261   7.468  0.0087 -0.0227  0.3248
11005SOL    HW134456   2.649   6.296   7.379 -0.4767  0.5658  0.5111
11005SOL    HW234457   2.671   6.170   7.461 -0.0128  0.0264 -0.4261
11006SOL     OW34458   1.136   6.438   7.465  0.4421  0.0283  0.2010
11006SOL    HW134459   1.086   6.363   7.431 -0.8098 -1.0791  3.9859
11006SOL    HW234460   1.110   6.511   7.410  0.2537 -1.8847 -2.4679
11007SOL     OW34461   3.565   5.149   8.898 -0.1622 -0.1618 -0.3970
11007SOL    HW134462   3.560   5.055   8.880  0.8591 -0.4115  0.5712
11007SOL    HW234463   3.658   5.168   8.906 -0.2409  1.2272 -1.9468
11008SOL     OW34464   1.988   7.348   8.504 -0.1861  0.2316  0.3251
11008SOL    HW134465   2.068   7.363   8.554  0.4953 -1.7070 -0.0937
11008SOL    HW234466   1.937   7.428   8.515  1.2902  1.0458  1.5659
11009SOL     OW34467   2.112   0.519   7.360  0.1384 -0.2569 -0.0919
11009SOL    HW134468   2.192   0.486   7.400 -1.6162 -3.2467  1.2890
11009SOL    HW234469   2.067   0.566   7.430 -1.0500 -2.0126  0.4086
11010SOL     OW34470   1.872   7.739   8.123 -0.1210 -0.1639 -0.1411
11010SOL    HW134471   1.916   7.655   8.140  0.1223 -0.1238 -0.5594
11010SOL    HW234472   1.844   7.769   8.209  0.2469 -0.4258  0.0729
11011SOL     OW34473   2.774   6.494   7.593  0.6539  0.3807  0.2977
11011SOL    HW134474   2.761   6.419   7.535 -1.9093  1.2538 -0.3892
11011SOL    HW234475   2.868   6.506   7.596  1.0124 -1.5399 -1.2940
11012SOL     OW34476   1.625   4.898   6.944  0.3070 -0.0251 -0.1065
11012SOL    HW134477   1.636   4.874   6.852 -1.0104 -0.5349 -0.1505
11012SOL    HW234478   1.679   4.835   6.992  0.5312 -0.1337 -0.4988
11013SOL     OW34479   3.333   5.716   9.606  0.1710  0.1564  0.2724
11013SOL    HW134480   3.380   5.679   9.681  0.7273  0.0611 -0.1229
11013SOL    HW234481   3.268   5.650   9.584  1.8557 -1.1220 -1.1153
11014SOL     OW34482   1.514   5.634   9.317 -0.1242 -0.4485 -0.6007
11014SOL    HW134483   1.474   5.720   9.306  1.2180  0.2298 -0.4249
11014SOL    HW234484   1.597   5.652   9.362 -0.0256 -1.8850 -0.1486
11015SOL     OW34485   2.325   5.866   9.980 -0.1500 -1.0269 -0.1665
11015SOL    HW134486   2.366   5.785   9.952 -1.3578 -2.0858  1.0198
11015SOL    HW234487   2.238   5.864   9.941 -0.3259 -0.4780  0.1758
11016SOL     OW34488   4.027   7.022   8.794 -0.4737  0.2595  0.3916
11016SOL    HW134489   3.990   7.103   8.830 -1.0469 -0.3925  1.2919
11016SOL    HW234490   4.079   6.985   8.865 -0.3296 -0.2505  0.0310
11017SOL     OW34491   0.628   6.058   7.234 -0.0498 -0.3284  0.3793
11017SOL    HW134492   0.599   6.110   7.159 -0.5336 -0.4566  0.4710
11017SOL    HW234493   0.604   6.110   7.311  1.5415  0.3724  0.4476
11018SOL     OW34494   2.865   5.783   8.266 -0.2479 -0.1279  0.4892
11018SOL    HW134495   2.902   5.789   8.354  2.8227 -1.1446 -0.5865
11018SOL    HW234496   2.941   5.792   8.208 -2.2134  1.0604 -2.1173
11019SOL     OW34497   2.506   7.410   8.915 -0.3092 -0.1559  0.1160
11019SOL    HW134498   2.588   7.366   8.938 -0.2534 -0.2690 -0.2845
11019SOL    HW234499   2.516   7.499   8.949  0.6478  0.3158 -1.3041
11020SOL     OW34500   1.755   5.385   8.188 -0.2299  0.6450  0.1478
11020SOL    HW134501   1.828   5.344   8.141 -1.2960 -1.8276  0.4841
11020SOL    HW234502   1.763   5.353   8.277 -1.2534  1.0321  0.3950
11021SOL     OW34503   2.650   4.743   5.825  0.6631  0.1230 -0.0521
11021SOL    HW134504   2.681   4.653   5.835 -0.2233 -0.0133  1.9467
11021SOL    HW234505   2.687   4.789   5.900 -2.8021  0.2389  1.7730
11022SOL     OW34506   1.811   6.325   7.780 -0.1916 -0.0673  0.4676
11022SOL    HW134507   1.776   6.410   7.752  0.6562  0.0097 -0.4228
11022SOL    HW234508   1.898   6.345   7.815  1.1097 -0.8003 -2.0799
11023SOL     OW34509   1.632   6.743   8.445 -0.1692 -0.3115  0.5887
11023SOL    HW134510   1.715   6.777   8.412  0.0582 -0.7345  0.7130
11023SOL    HW234511   1.569   6.765   8.377 -0.0057  0.2371  0.6065
11024SOL     OW34512   1.920   6.056   8.093 -0.0271  0.4358  0.0386
11024SOL    HW134513   1.880   6.010   8.167 -0.0787 -1.9880 -1.3812
11024SOL    HW234514   1.863   6.035   8.019  1.4733  0.5557 -1.1856
11025SOL     OW34515   2.253   7.349   8.216  0.6353 -0.1364  0.0687
11025SOL    HW134516   2.338   7.353   8.258 -0.4847 -0.0452  2.5295
11025SOL    HW234517   2.210   7.432   8.240 -0.3878 -0.4473 -0.5815
11026SOL     OW34518   3.316   5.011   6.384 -0.4759  0.4902 -0.1313
11026SOL    HW134519   3.365   5.014   6.302 -1.0561  1.0712 -0.4690
11026SOL    HW234520   3.308   4.918   6.404  1.0055  0.3817  0.0888
11027SOL     OW34521   1.099   6.133   8.498 -0.2856 -0.2006 -0.0527
11027SOL    HW134522   1.070   6.045   8.474 -2.4431  0.7772 -1.4008
11027SOL    HW234523   1.030   6.167   8.556 -0.3351  1.1113 -0.8168
11028SOL     OW34524   2.789   6.473   8.583 -0.0061 -0.4268  0.4329
11028SOL    HW134525   2.759   6.418   8.656 -1.1230 -0.8598 -0.3268
11028SOL    HW234526   2.708   6.504   8.542  0.4773 -2.2220 -2.1449
11029SOL     OW34527   0.832   6.615   7.758  0.6687 -0.1839 -0.0976
11029SOL    HW134528   0.769   6.551   7.725  0.6774 -0.8947  1.2067
11029SOL    HW234529   0.893   6.629   7.685  0.9245 -1.9927 -0.2680
11030SOL     OW34530   1.019   4.340   6.413  0.1433  0.1445 -0.0965
11030SOL    HW134531   0.986   4.430   6.408 -1.5553 -0.3215  1.5536
11030SOL    HW234532   0.946   4.286   6.380  0.0496 -0.7799  1.5494
11031SOL     OW34533   2.175   6.842   7.959 -0.2724  0.1705  0.9099
11031SOL    HW134534   2.252   6.804   7.917 -0.4968  0.1732  0.4887
11031SOL    HW234535   2.105   6.778   7.942 -0.3817  0.2082  1.2149
11032SOL     OW34536   3.035   6.528   7.794 -0.2967  0.6469  0.4062
11032SOL    HW134537   3.117   6.524   7.843  0.0913 -0.8332 -0.2832
11032SOL    HW234538   2.967   6.541   7.861  0.4690  1.6315  1.0037
11033SOL     OW34539   3.209   5.508   7.392  0.0881  0.5374 -0.6149
11033SOL    HW134540   3.130   5.461   7.417  0.4510  0.5144  0.5486
11033SOL    HW234541   3.256   5.447   7.335  0.8248 -0.7949  1.3171
11034SOL     OW34542   0.321   6.797   6.695 -0.0069  0.1771 -0.3252
11034SOL    HW134543   0.322   6.820   6.602 -0.4696 -2.4391 -1.0681
11034SOL    HW234544   0.250   6.733   6.702  2.4018 -2.5279  1.0218
11035SOL     OW34545   4.906   5.586   7.559 -1.2497 -0.3402  0.1225
11035SOL    HW134546   4.961   5.663   7.540 -1.7907 -0.4642 -2.2940
11035SOL    HW234547   4.865   5.606   7.643  1.7627  0.1510  1.6039
11036SOL     OW34548   2.346   4.651   6.884 -0.3674  0.1526  0.4161
11036SOL    HW134549   2.376   4.693   6.803 -0.0075 -0.2343  0.3443
11036SOL    HW234550   2.418   4.594   6.909  0.2800  1.5666  1.9831
11037SOL     OW34551   2.697   4.945   6.036  0.0918 -0.1611 -0.1107
11037SOL    HW134552   2.608   4.975   6.056  0.0084 -0.7626  0.4356
11037SOL    HW234553   2.730   4.910   6.118  1.1625  0.8471 -0.0859
11038SOL     OW34554   2.129   6.506   9.209  0.8978  0.2274 -0.2424
11038SOL    HW134555   2.136   6.459   9.292 -0.1954  1.1451  0.3970
11038SOL    HW234556   2.071   6.451   9.155  0.3132  0.4041  0.1945
11039SOL     OW34557   3.090   7.357   7.624 -0.2170  0.0787  0.0662
11039SOL    HW134558   3.162   7.329   7.680 -0.8899 -1.4168  0.2427
11039SOL    HW234559   3.087   7.452   7.633  0.2864 -0.0452  1.8309
11040SOL     OW34560   4.842   6.305   9.726 -0.2939 -0.2404 -0.5530
11040SOL    HW134561   4.810   6.338   9.810  1.2060 -0.1119  0.0027
11040SOL    HW234562   4.846   6.383   9.670  0.0526 -0.0610 -0.2857
11041SOL     OW34563   1.627   7.101   8.991  0.2378  0.3119 -0.0385
11041SOL    HW134564   1.556   7.127   9.049 -0.5810  0.3144 -1.0252
11041SOL    HW234565   1.663   7.021   9.030 -2.4262 -1.5971 -1.2135
11042SOL     OW34566   2.923   6.549   9.611 -0.6822  0.0782  0.0462
11042SOL    HW134567   2.846   6.565   9.666 -1.0557 -2.2646  0.3021
11042SOL    HW234568   2.995   6.534   9.672 -0.0451  1.9359 -0.1906
11043SOL     OW34569   2.532   5.315   7.837 -0.3888 -0.2921 -0.3489
11043SOL    HW134570   2.478   5.390   7.859  0.9140  0.3830  0.7086
11043SOL    HW234571   2.484   5.239   7.869  0.0217  0.4250  2.1265
11044SOL     OW34572   1.655   7.587   9.163  0.4540 -0.3503  0.0637
11044SOL    HW134573   1.719   7.516   9.168 -0.3034 -1.0383  0.0796
11044SOL    HW234574   1.633   7.606   9.254  1.8363  1.0162  0.1599
11045SOL     OW34575   3.011   6.381   6.650  0.0309  0.1388 -0.0316
11045SOL    HW134576   3.101   6.383   6.617  0.6106 -1.0578  1.4094
11045SOL    HW234577   3.004   6.460   6.705  0.6169 -0.4128  0.8568
11046SOL     OW34578   3.933   5.627   8.547  0.3691 -0.0926 -0.3031
11046SOL    HW134579   3.867   5.576   8.499  0.4212  0.1277 -0.6148
11046SOL    HW234580   3.967   5.566   8.613 -0.8386  0.0792  0.5235
11047SOL     OW34581   3.497   7.910   8.319  0.3660  0.1595  0.1309
11047SOL    HW134582   3.563   7.842   8.328 -0.1706 -0.2190  1.3231
11047SOL    HW234583   3.500   7.958   8.402 -2.1648 -1.0619  1.0092
11048SOL     OW34584   7.737   0.283   7.989 -0.0350 -0.1977  0.1260
11048SOL    HW134585   7.808   0.303   7.929  0.8859  0.2453  1.3061
11048SOL    HW234586   7.715   0.191   7.971 -0.7024  0.2910 -1.7576
11049SOL     OW34587   2.112   5.853   6.464 -0.4831  0.2894 -1.0664
11049SOL    HW134588   2.153   5.780   6.418  1.0827 -0.2533  1.0691
11049SOL    HW234589   2.174   5.925   6.455 -0.4792  0.3744 -0.3849
11050SOL     OW34590   2.235   7.245   7.447 -0.5279 -0.3571 -0.2357
11050SOL    HW134591   2.204   7.335   7.435  0.3443 -0.0471 -0.2083
11050SOL    HW234592   2.160   7.191   7.421 -0.4685  0.3403 -2.0177
11051SOL     OW34593   3.927   5.859   8.383  0.3376  0.1952 -0.3897
11051SOL    HW134594   4.012   5.903   8.390 -0.0716  0.9562 -0.0252
11051SOL    HW234595   3.934   5.784   8.442  1.0879 -0.3130 -1.1024
11052SOL     OW34596   3.668   0.129   9.479  1.0543 -0.3734  0.1348
11052SOL    HW134597   3.708   0.087   9.403  0.5229 -0.6975  0.0337
11052SOL    HW234598   3.582   0.158   9.448  0.3114 -1.6122  0.9424
11053SOL     OW34599   1.867   5.014   6.515 -0.5993 -0.1739  0.3841
11053SOL    HW134600   1.840   5.048   6.429 -0.9346 -0.8781  0.1928
11053SOL    HW234601   1.903   5.089   6.561 -2.8836  0.8387  0.6356
11054SOL     OW34602   1.432   7.932   8.633  0.3609 -0.2282 -0.3040
11054SOL    HW134603   1.413   7.992   8.705  1.4156 -0.3444  0.1017
11054SOL    HW234604   1.371   7.956   8.564  0.2181  0.7628  0.1500
11055SOL     OW34605   2.446   6.993   9.797 -0.5401 -0.4821  0.5798
11055SOL    HW134606   2.415   6.923   9.740  1.6917 -1.8518  0.9334
11055SOL    HW234607   2.497   7.050   9.739 -1.0544  0.0187  0.6037
11056SOL     OW34608   2.593   6.849   8.794 -0.5407  0.4832 -0.6945
11056SOL    HW134609   2.523   6.791   8.825  1.3497 -0.1854  2.8674
11056SOL    HW234610   2.559   6.937   8.810 -0.9375  0.1893  0.1592
11057SOL     OW34611   4.490   6.244  11.565 -0.3556 -0.4098  0.2104
11057SOL    HW134612   4.414   6.301  11.560 -0.2357 -0.2767 -0.0725
11057SOL    HW234613   4.565   6.302  11.551 -0.1720 -0.4614  0.9458
11058SOL     OW34614   1.216   7.001   9.583 -0.0679 -0.7448 -0.0594
11058SOL    HW134615   1.249   7.090   9.594  0.6756 -1.1630  1.3271
11058SOL    HW234616   1.281   6.958   9.526 -0.8576 -0.2033 -1.4205
11059SOL     OW34617   0.940   7.762   7.813 -0.8217  0.3239  0.0102
11059SOL    HW134618   1.031   7.779   7.788 -0.2260  1.3156  2.5388
11059SOL    HW234619   0.939   7.669   7.836 -0.1276  0.5735  1.0940
11060SOL     OW34620   3.730   5.752   7.719  0.0901 -0.1337 -0.4026
11060SOL    HW134621   3.783   5.680   7.684  0.8252 -0.3033  0.9640
11060SOL    HW234622   3.743   5.747   7.814 -1.8835  0.2399 -0.0708
11061SOL     OW34623   2.633   4.969   6.323 -0.3314  0.0370  0.3769
11061SOL    HW134624   2.642   5.064   6.312 -1.9260  0.1583 -0.1471
11061SOL    HW234625   2.555   4.959   6.378 -2.0311 -0.9994 -2.0600
11062SOL     OW34626   1.433   6.300   8.305 -0.0029 -0.1884  0.0196
11062SOL    HW134627   1.425   6.258   8.391 -0.9454 -0.4133 -0.1692
11062SOL    HW234628   1.501   6.365   8.317  1.6000 -1.8254  0.3017
11063SOL     OW34629   1.339   0.682   8.521 -0.3031  0.5437 -0.4395
11063SOL    HW134630   1.367   0.772   8.504  0.2115  0.0319 -2.4776
11063SOL    HW234631   1.267   0.692   8.584  0.2723  2.3105 -0.0002
11064SOL     OW34632   0.274   5.907   7.921 -0.4799 -0.8691 -0.3253
11064SOL    HW134633   0.247   5.956   7.843 -1.2949 -3.0269 -1.4746
11064SOL    HW234634   0.350   5.857   7.891  1.0223  0.4225  1.1351
11065SOL     OW34635   2.321   6.367   8.651  0.1100 -0.3598 -0.6821
11065SOL    HW134636   2.402   6.316   8.650  0.9982  1.0005 -0.9536
11065SOL    HW234637   2.306   6.391   8.560  0.6412  1.2271 -0.3859
11066SOL     OW34638   0.533   6.972   8.156 -0.1363  0.7212 -0.2676
11066SOL    HW134639   0.585   6.953   8.233 -1.3055  0.0769  0.3864
11066SOL    HW234640   0.482   6.893   8.140 -0.7269  1.2273 -1.0364
11067SOL     OW34641   2.697   6.390   4.273 -0.0319  0.2045  0.0939
11067SOL    HW134642   2.700   6.470   4.220 -2.3406  0.1407 -0.2359
11067SOL    HW234643   2.682   6.319   4.210 -0.2046 -0.1971  0.5717
11068SOL     OW34644   2.654   5.858   8.998 -0.7839 -0.1136  0.2393
11068SOL    HW134645   2.736   5.905   8.982 -0.0056 -1.5611 -0.1666
11068SOL    HW234646   2.590   5.902   8.943 -0.5915  1.7903  1.4291
11069SOL     OW34647   2.892   6.464   8.949  0.0073 -0.0149  0.0369
11069SOL    HW134648   2.857   6.538   8.899 -0.8381 -0.1706  0.3843
11069SOL    HW234649   2.931   6.407   8.882 -1.4185 -0.3946 -0.5138
11070SOL     OW34650   1.842   6.901   7.760  0.2480  0.2056  0.5042
11070SOL    HW134651   1.860   6.821   7.810 -1.1446  0.1121  0.9015
11070SOL    HW234652   1.924   6.920   7.716  0.7932 -1.1010  0.8895
11071SOL     OW34653   2.008   7.087  10.108  0.4434 -0.3181 -0.3244
11071SOL    HW134654   2.078   7.142  10.143 -0.8564  0.3382  1.3549
11071SOL    HW234655   2.024   7.000  10.146  0.6118 -0.2881 -0.3262
11072SOL     OW34656   2.601   5.334   7.473 -0.5337 -0.8324  0.0967
11072SOL    HW134657   2.668   5.388   7.431  0.8540 -1.4904  1.4023
11072SOL    HW234658   2.541   5.398   7.512  0.4641 -0.2072  0.6555
11073SOL     OW34659   2.670   7.262   5.664 -0.3464  0.3342 -0.1872
11073SOL    HW134660   2.614   7.213   5.603 -0.4067  1.8875 -1.4382
11073SOL    HW234661   2.624   7.344   5.679  1.1091  1.2558 -0.4928
11074SOL     OW34662   0.090   6.068   7.613 -0.3215  0.5459  0.1978
11074SOL    HW134663   0.040   6.145   7.588 -1.1962 -0.6343 -1.9931
11074SOL    HW234664   0.024   6.006   7.645  0.0424 -0.1138 -0.3057
11075SOL     OW34665   3.718   5.768  10.321 -0.2203  0.0933  0.7296
11075SOL    HW134666   3.795   5.802  10.275 -0.3364 -0.0367  0.4335
11075SOL    HW234667   3.710   5.822  10.399  0.3861 -0.1254  0.9444
11076SOL     OW34668   2.083   5.819   9.554  0.2024  0.2072  0.3532
11076SOL    HW134669   2.074   5.827   9.649 -1.6399  1.7015  0.1134
11076SOL    HW234670   2.002   5.774   9.527  0.8003 -0.3777 -0.4988
11077SOL     OW34671   1.807   5.891   6.844  0.2834 -0.5455  0.3497
11077SOL    HW134672   1.858   5.969   6.865 -1.4737  0.3168  1.6564
11077SOL    HW234673   1.749   5.879   6.919 -1.6094 -1.3224 -1.1491
11078SOL     OW34674   4.650   1.447   7.480 -0.2620 -0.3975  0.2547
11078SOL    HW134675   4.702   1.381   7.527 -0.8126 -1.0750 -0.0805
11078SOL    HW234676   4.565   1.405   7.465 -1.0953  0.8703  1.2255
11079SOL     OW34677   1.311   6.624   6.720  0.1628  0.2469  0.2172
11079SOL    HW134678   1.282   6.534   6.735 -0.6527  0.4540 -0.0013
11079SOL    HW234679   1.373   6.618   6.647  0.5289 -0.2008  0.5687
11080SOL     OW34680   1.731   6.456   6.744 -0.5418 -0.1149  0.5164
11080SOL    HW134681   1.721   6.519   6.672 -0.0395 -0.2723  0.3067
11080SOL    HW234682   1.818   6.420   6.732 -1.9877 -3.4273 -1.4303
11081SOL     OW34683   3.515   5.623   6.236  0.0628 -0.0116 -0.3378
11081SOL    HW134684   3.556   5.552   6.285  0.3179 -0.0393 -0.5928
11081SOL    HW234685   3.561   5.625   6.152 -0.2174  0.1869 -0.4894
11082SOL     OW34686   2.094   5.261   9.518  0.0710  0.3487  0.2715
11082SOL    HW134687   2.135   5.270   9.604 -0.6961  0.6635  0.6226
11082SOL    HW234688   2.007   5.225   9.537  0.2895 -0.6104 -0.4751
11083SOL     OW34689   2.296   6.075   9.742  0.1511  0.3418 -0.2435
11083SOL    HW134690   2.236   6.137   9.783 -0.0465  0.0824 -0.1382
11083SOL    HW234691   2.301   6.001   9.803  0.6839  0.4187 -0.1843
11084SOL     OW34692   3.274   5.644   8.507  0.1305 -0.1891 -0.2235
11084SOL    HW134693   3.355   5.623   8.554  0.4167  0.4958 -0.4075
11084SOL    HW234694   3.235   5.558   8.488 -0.4565 -0.4962  2.0223
11085SOL     OW34695   3.334   6.768   8.054  0.3918 -0.2669 -0.1633
11085SOL    HW134696   3.275   6.759   8.129  1.4108  1.7710  0.9620
11085SOL    HW234697   3.300   6.843   8.005  0.6838 -0.5788 -0.8635
11086SOL     OW34698   2.371   6.175   7.999 -0.5855 -0.2604 -0.3362
11086SOL    HW134699   2.396   6.136   7.915 -0.3319  1.8583 -1.3141
11086SOL    HW234700   2.431   6.136   8.062 -0.3648 -1.4293 -1.2227
11087SOL     OW34701   1.598   5.915   8.140 -0.4030  0.0314 -0.2783
11087SOL    HW134702   1.540   5.967   8.195 -1.3219 -0.2510 -0.9529
11087SOL    HW234703   1.624   5.841   8.195 -0.2452  0.4516  0.2098
11088SOL     OW34704   3.528   5.190   7.762  0.4685  0.1166  0.4715
11088SOL    HW134705   3.465   5.154   7.700  1.7554  0.0337 -0.8610
11088SOL    HW234706   3.500   5.280   7.776  1.4180  0.9482 -2.1799
11089SOL     OW34707   1.640   7.496   8.332  0.3320  0.1766  0.0197
11089SOL    HW134708   1.550   7.506   8.363  0.7297 -0.6983  1.5554
11089SOL    HW234709   1.683   7.578   8.355  0.3293 -0.0286  0.7795
11090SOL     OW34710   2.313   6.022   6.445 -0.0764 -0.2275  0.6211
11090SOL    HW134711   2.400   5.985   6.430 -0.7685 -1.8990  0.5771
11090SOL    HW234712   2.311   6.043   6.538  0.6902  0.7032  0.4401
11091SOL     OW34713   2.661   6.328   9.441  0.0056  0.1497  0.8589
11091SOL    HW134714   2.738   6.372   9.405 -0.4852  1.8194  1.7491
11091SOL    HW234715   2.673   6.236   9.418  1.3809  0.6340 -0.5548
11092SOL     OW34716   3.450   6.266   8.287 -0.2955 -0.0115 -0.0307
11092SOL    HW134717   3.474   6.189   8.337  0.8018  0.5696  0.3787
11092SOL    HW234718   3.416   6.232   8.204 -0.1993 -0.9323  0.3006
11093SOL     OW34719   3.622   6.035   8.192 -0.0852 -0.1518 -0.4910
11093SOL    HW134720   3.706   5.995   8.171 -0.7867 -1.3602 -1.0956
11093SOL    HW234721   3.571   6.028   8.112 -0.8290  0.3967 -0.0792
11094SOL     OW34722   3.318   6.189   8.050 -0.2249  0.0422  0.3940
11094SOL    HW134723   3.340   6.194   7.957  2.4270  1.4200  0.9928
11094SOL    HW234724   3.303   6.096   8.067 -2.1312 -0.1092 -1.6134
11095SOL     OW34725   1.764   6.232   8.761 -0.4783  0.0978  0.5061
11095SOL    HW134726   1.822   6.167   8.800  1.0772 -0.2055 -2.1006
11095SOL    HW234727   1.713   6.183   8.697 -0.3565  1.1661 -0.4369
11096SOL     OW34728   1.971   6.840   7.278 -0.5432 -0.3036  0.0562
11096SOL    HW134729   1.935   6.787   7.349  1.4524 -1.1102  0.5285
11096SOL    HW234730   2.033   6.782   7.234 -2.9460 -0.4174 -3.5191
11097SOL     OW34731   2.987   7.465  10.369 -0.4111 -0.8978 -0.0010
11097SOL    HW134732   2.937   7.385  10.385 -0.5022 -0.5941  1.3276
11097SOL    HW234733   3.073   7.435  10.340 -0.3241 -1.4981  0.8490
11098SOL     OW34734   4.581   6.085   7.247 -0.6465 -0.0541 -0.1413
11098SOL    HW134735   4.582   6.107   7.154  0.3868 -0.4395 -0.2306
11098SOL    HW234736   4.669   6.106   7.278 -0.8317 -0.3971  0.6365
11099SOL     OW34737   3.145   7.254   6.527  0.7804  0.5037  0.0512
11099SOL    HW134738   3.066   7.216   6.565  1.2249 -0.7864 -0.2766
11099SOL    HW234739   3.130   7.349   6.531  0.1288  0.3539  1.9174
11100SOL     OW34740   3.061   7.509   9.066  0.7548  0.6184  0.3782
11100SOL    HW134741   3.125   7.523   9.136 -0.0040 -1.1142  1.4639
11100SOL    HW234742   3.052   7.595   9.025  1.3098  1.6665  2.3297
11101SOL     OW34743   1.974   7.840   7.814  0.3153 -0.3603 -0.3168
11101SOL    HW134744   2.012   7.770   7.867  1.9009  0.3538 -0.4703
11101SOL    HW234745   1.885   7.850   7.848  1.2372  0.0056  2.1366
11102SOL     OW34746   7.946   7.681   8.336  0.2004  0.8479  0.0390
11102SOL    HW134747   8.005   7.691   8.411  0.4097 -0.8492  0.1193
11102SOL    HW234748   7.862   7.715   8.367  0.8164  2.2537  0.2757
11103SOL     OW34749   3.650   5.447   6.390 -0.0744 -0.1057 -0.1802
11103SOL    HW134750   3.644   5.493   6.474 -1.7926 -0.5884 -0.0046
11103SOL    HW234751   3.648   5.354   6.414  0.2374 -0.2531 -0.7198
11104SOL     OW34752   2.615   0.644   7.749  0.2295  0.0467 -0.3270
11104SOL    HW134753   2.656   0.641   7.836 -1.8448 -0.6867  0.7032
11104SOL    HW234754   2.563   0.724   7.750 -1.2523 -0.8819 -0.1448
11105SOL     OW34755   1.818   5.876   8.645 -0.3248 -0.1024  0.2665
11105SOL    HW134756   1.845   5.827   8.722 -0.1583  0.7795  0.7859
11105SOL    HW234757   1.900   5.907   8.605 -0.4630  0.8162  0.6671
11106SOL     OW34758   1.844   6.250   7.311 -0.2060  0.7699  0.0499
11106SOL    HW134759   1.823   6.198   7.388  0.7201  0.9704  0.4548
11106SOL    HW234760   1.935   6.277   7.324 -0.0202  0.7786 -1.1327
11107SOL     OW34761   2.251   6.360   8.371 -0.1032 -0.7837  0.4794
11107SOL    HW134762   2.319   6.297   8.347 -0.2771 -0.2996 -1.3714
11107SOL    HW234763   2.239   6.414   8.293 -1.1005  0.5231  1.4916
11108SOL     OW34764   2.775   5.111   7.499 -0.0517 -0.6079  0.3222
11108SOL    HW134765   2.777   5.087   7.592 -0.1956 -0.3668  0.3880
11108SOL    HW234766   2.728   5.194   7.496 -0.7056 -0.9861 -0.0514
11109SOL     OW34767   2.605   6.542   6.440  0.3797  0.2792 -0.4279
11109SOL    HW134768   2.516   6.559   6.412  0.0136 -2.1705 -0.9855
11109SOL    HW234769   2.639   6.479   6.377  2.1946  0.4631  0.2927
11110SOL     OW34770   2.772   6.515   6.665  0.7576 -0.8727  0.1040
11110SOL    HW134771   2.732   6.558   6.589 -0.7883  0.1181  1.3940
11110SOL    HW234772   2.826   6.446   6.628  1.8026  0.9384 -2.0040
11111SOL     OW34773   2.919   5.919   6.682  0.5699 -0.1216  0.0286
11111SOL    HW134774   2.870   5.873   6.751 -0.4503  1.6528  0.5639
11111SOL    HW234775   2.942   5.851   6.620 -1.5866 -1.2653  0.3621
11112SOL     OW34776   1.448   7.176   7.139 -0.0755  0.2146 -0.0579
11112SOL    HW134777   1.417   7.203   7.226  0.5710 -1.6468  0.8013
11112SOL    HW234778   1.375   7.126   7.103  0.5218 -1.0250  0.4207
11113SOL     OW34779   1.581   5.847   7.337  0.1248 -0.6948  0.4071
11113SOL    HW134780   1.665   5.876   7.374  0.0914  3.4120 -2.1256
11113SOL    HW234781   1.516   5.881   7.398  0.2090 -0.8772  0.6019
11114SOL     OW34782   1.733   5.304   6.654  0.2887  0.0199 -0.5053
11114SOL    HW134783   1.797   5.365   6.616  0.6735  0.9634  1.5383
11114SOL    HW234784   1.666   5.360   6.691  0.2043 -0.8151  0.6585
11115SOL     OW34785   3.305   5.797   7.870 -0.0527  0.0507  0.4816
11115SOL    HW134786   3.265   5.719   7.908 -0.3055 -0.1584 -0.2027
11115SOL    HW234787   3.233   5.846   7.831  0.3614 -0.5001 -1.0594
11116SOL     OW34788   1.853   6.643   7.450 -0.7706 -0.2327  0.2809
11116SOL    HW134789   1.809   6.635   7.535 -0.4937 -1.7978  0.3146
11116SOL    HW234790   1.799   6.590   7.391  0.7709 -1.8430  0.2364
11117SOL     OW34791   1.560   0.353   8.558  0.0520 -0.0391  0.0654
11117SOL    HW134792   1.609   0.432   8.581 -1.1270  0.3451  1.4599
11117SOL    HW234793   1.569   0.296   8.635 -1.4093 -0.0630  0.2541
11118SOL     OW34794   1.952   5.635   8.538 -0.1408  0.1551  0.0663
11118SOL    HW134795   1.971   5.718   8.495 -3.0757  0.2991 -1.1893
11118SOL    HW234796   1.926   5.659   8.627  2.1064  0.2163  0.7619
11119SOL     OW34797   1.028   4.647   6.837 -0.6213 -0.0587 -0.4919
11119SOL    HW134798   0.974   4.577   6.800 -0.8772  0.1270 -0.4767
11119SOL    HW234799   1.096   4.663   6.771  0.0862 -1.0535 -0.0245
11120SOL     OW34800   3.920   6.843   9.297 -0.0901  0.4899  0.2042
11120SOL    HW134801   3.955   6.932   9.299 -1.1544  0.9797 -1.3063
11120SOL    HW234802   3.833   6.850   9.337  0.7149 -0.3877  2.3126
11121SOL     OW34803   7.795   5.729   8.065 -0.5764 -0.3081 -0.2478
11121SOL    HW134804   7.763   5.639   8.054 -0.8684 -0.2145 -0.1643
11121SOL    HW234805   7.780   5.749   8.157  0.1024 -0.4049 -0.1066
11122SOL     OW34806   3.117   5.225   9.203 -0.3540 -0.0594  0.5279
11122SOL    HW134807   3.160   5.177   9.274 -0.2408  0.3785  0.7560
11122SOL    HW234808   3.151   5.184   9.123 -0.9544 -0.9752  0.7176
11123SOL     OW34809   1.502   5.694  10.538  0.1621 -0.4142 -0.0232
11123SOL    HW134810   1.482   5.602  10.554  0.2011 -0.3689  0.2830
11123SOL    HW234811   1.449   5.717  10.461 -1.2360 -0.2054  0.9638
11124SOL     OW34812   3.138   6.411   7.570 -0.2575  0.3123 -0.2900
11124SOL    HW134813   3.113   6.486   7.517  1.2994  0.5491 -0.7282
11124SOL    HW234814   3.112   6.436   7.659  0.8331  1.6782 -0.3201
11125SOL     OW34815   2.150   7.280   9.196 -0.2097 -0.4668  0.3008
11125SOL    HW134816   2.122   7.247   9.111 -0.2359 -0.3648  0.2699
11125SOL    HW234817   2.138   7.375   9.191  1.5603 -0.2387 -0.2639
11126SOL     OW34818   2.482   6.011   8.870 -0.0553 -0.0432  0.1188
11126SOL    HW134819   2.401   6.024   8.820  0.2574 -2.5207 -1.1704
11126SOL    HW234820   2.469   6.064   8.949 -1.0333  3.2034 -1.9828
11127SOL     OW34821   2.756   0.591   8.027  0.3483  0.0802 -0.0572
11127SOL    HW134822   2.760   0.677   8.067 -1.7063  0.3141 -0.2443
11127SOL    HW234823   2.687   0.545   8.074  1.5967 -1.6116  0.2469
11128SOL     OW34824   5.247   7.377  10.241 -0.1367  0.6423  0.0022
11128SOL    HW134825   5.269   7.451  10.299 -1.5045  0.3939  0.8748
11128SOL    HW234826   5.281   7.300  10.286 -1.3221  0.4334  0.5881
11129SOL     OW34827   3.765   6.245   6.888 -0.1317 -0.5222  0.6285
11129SOL    HW134828   3.671   6.262   6.892 -0.2150 -0.4381 -0.9407
11129SOL    HW234829   3.803   6.328   6.859  0.2809 -0.9095  0.0475
11130SOL     OW34830   1.299   6.596   8.053  0.2277 -0.0178 -0.1623
11130SOL    HW134831   1.218   6.619   8.006  0.1336  1.1720  0.5650
11130SOL    HW234832   1.273   6.523   8.109  0.2571 -1.2408 -1.6507
11131SOL     OW34833   2.972   7.418   8.739  0.6940  0.3132  0.0348
11131SOL    HW134834   2.913   7.481   8.781  1.8339  1.3925  0.0759
11131SOL    HW234835   2.977   7.446   8.648  0.4803 -0.2834 -0.1634
11132SOL     OW34836   4.446   6.973   8.491  0.0446  0.5015  0.0687
11132SOL    HW134837   4.483   6.971   8.579  0.3117 -1.7621 -0.0309
11132SOL    HW234838   4.399   6.890   8.483 -1.8096  1.6215 -1.1894
11133SOL     OW34839   2.579   7.046   7.381  0.4406  0.1227 -0.0851
11133SOL    HW134840   2.608   7.032   7.291  0.6802 -1.0909  0.1620
11133SOL    HW234841   2.533   6.965   7.405 -0.2185  0.6946  0.6593
11134SOL     OW34842   2.098   7.760   7.008  1.0355 -0.2765  0.4982
11134SOL    HW134843   2.024   7.795   6.958  0.8767  2.0154  2.1742
11134SOL    HW234844   2.062   7.743   7.095  2.5028  1.4112  1.5225
11135SOL     OW34845   3.220   7.390   8.883  0.1593 -0.4892  0.2439
11135SOL    HW134846   3.173   7.402   8.800  0.0082 -0.9823  0.2507
11135SOL    HW234847   3.164   7.429   8.949  0.3349  0.0131  0.1017
11136SOL     OW34848   2.761   5.134   6.863 -0.1185 -0.0723 -0.1593
11136SOL    HW134849   2.796   5.216   6.896  0.9521 -1.9908  4.0925
11136SOL    HW234850   2.834   5.072   6.868 -1.8944 -2.2499  0.9517
11137SOL     OW34851   5.119   7.452   7.913 -0.3491  1.0141  0.1259
11137SOL    HW134852   5.074   7.447   7.829 -0.3952 -0.8997  0.2225
11137SOL    HW234853   5.048   7.452   7.978 -0.3020 -0.7731  0.2343
11138SOL     OW34854   0.998   5.884   8.435  0.4660 -0.6567  0.6943
11138SOL    HW134855   0.917   5.936   8.433  1.5214  1.0452  0.2978
11138SOL    HW234856   0.972   5.802   8.477 -1.5342 -0.2876  0.2979
11139SOL     OW34857   0.596   5.590   8.953 -0.1244  0.4112 -0.4726
11139SOL    HW134858   0.552   5.595   8.868  1.9583  0.2726 -1.6218
11139SOL    HW234859   0.558   5.512   8.995 -3.0175  1.8858 -0.1034
11140SOL     OW34860   2.109   5.786   9.841  0.3308 -0.1138  0.3335
11140SOL    HW134861   2.143   5.708   9.884 -0.2983 -0.8283 -0.4475
11140SOL    HW234862   2.031   5.810   9.890  0.3877 -0.1120  0.4231
11141SOL     OW34863   2.927   5.449   8.250 -0.0991 -0.3548  0.6918
11141SOL    HW134864   2.856   5.513   8.248 -0.1097 -0.3722  0.1587
11141SOL    HW234865   2.890   5.372   8.207  0.0220 -0.6036  1.0285
11142SOL     OW34866   2.740   5.824  10.135 -0.9074 -0.5853 -0.3031
11142SOL    HW134867   2.768   5.767  10.207 -0.4432 -0.3269 -0.2723
11142SOL    HW234868   2.809   5.891  10.130 -1.0940 -0.4290 -0.7887
11143SOL     OW34869   1.408   7.125   7.720  0.2432 -0.2140 -0.8130
11143SOL    HW134870   1.372   7.200   7.767 -1.3464 -1.4046 -0.0332
11143SOL    HW234871   1.477   7.162   7.665  1.0460  1.4810  1.1890
11144SOL     OW34872   2.272   5.851   6.195  0.0278  0.4124 -0.2234
11144SOL    HW134873   2.260   5.938   6.232 -0.8874  0.1193  0.2017
11144SOL    HW234874   2.201   5.842   6.131  1.4653  0.8365 -1.9513
11145SOL     OW34875   3.368   7.078   8.597  0.8502 -0.2989  0.8275
11145SOL    HW134876   3.438   7.086   8.662  0.0327 -0.5951  1.7791
11145SOL    HW234877   3.364   6.984   8.578  1.2089 -0.1896  0.2057
11146SOL     OW34878   4.573   5.257   5.340  0.9112  0.1430  0.1900
11146SOL    HW134879   4.578   5.174   5.387 -1.2573 -0.6676 -0.8942
11146SOL    HW234880   4.536   5.234   5.255  0.6832  2.1726 -0.3073
11147SOL     OW34881   2.890   5.215   8.463 -0.2099 -0.5662  0.1115
11147SOL    HW134882   2.977   5.180   8.443 -0.4424 -0.5042 -1.0434
11147SOL    HW234883   2.863   5.260   8.383 -0.2759  1.5436  1.2390
11148SOL     OW34884   0.630   4.716   8.721  0.2991  0.1119 -0.1932
11148SOL    HW134885   0.657   4.789   8.665 -0.0433 -0.7747 -1.5686
11148SOL    HW234886   0.535   4.726   8.728  0.4572  0.8284  1.1487
11149SOL     OW34887   0.544   0.654   8.401 -0.0109  0.5268 -0.3146
11149SOL    HW134888   0.520   0.563   8.387 -1.6374  1.1373 -2.0071
11149SOL    HW234889   0.526   0.671   8.493  1.0345 -1.0251  0.2045
11150SOL     OW34890   1.906   4.927   7.809  0.4321 -0.5220  0.2550
11150SOL    HW134891   1.851   5.001   7.785  1.1928 -0.2516 -0.7183
11150SOL    HW234892   1.946   4.953   7.892 -0.5037 -0.5057  0.7059
11151SOL     OW34893   3.171   6.079   8.524 -0.4381 -0.7866  0.6442
11151SOL    HW134894   3.211   6.166   8.524 -0.2807 -0.8578  1.0700
11151SOL    HW234895   3.241   6.021   8.494  0.3503 -1.1594  3.0126
11152SOL     OW34896   3.649   5.110   8.337 -0.2805  0.2911 -0.5700
11152SOL    HW134897   3.683   5.058   8.264 -1.2118  0.0568 -0.8532
11152SOL    HW234898   3.580   5.056   8.375  1.0753 -0.1695  1.3564
11153SOL     OW34899   1.574   7.377   6.737  0.0538 -0.2871  0.3834
11153SOL    HW134900   1.578   7.459   6.787  0.2546  1.0908 -1.7417
11153SOL    HW234901   1.481   7.356   6.734 -0.2860  1.1971 -0.9808
11154SOL     OW34902   2.826   5.148   9.141 -0.1741 -0.5290 -0.3411
11154SOL    HW134903   2.902   5.160   9.199  0.0204  1.7076 -0.9794
11154SOL    HW234904   2.858   5.173   9.054 -1.7021  0.8247 -0.5577
11155SOL     OW34905   2.428   7.026   9.402 -0.1970 -0.4285 -0.1905
11155SOL    HW134906   2.336   7.050   9.391  0.1564  1.4079  0.5224
11155SOL    HW234907   2.427   6.960   9.471 -0.8569  0.7593  0.9672
11156SOL     OW34908   2.559   6.181   9.818 -0.1903 -0.4594 -0.1598
11156SOL    HW134909   2.638   6.133   9.843  0.0044 -0.5299 -0.8822
11156SOL    HW234910   2.500   6.115   9.784  0.0140 -0.2262 -0.9991
11157SOL     OW34911   2.397   6.283   9.311  0.5346 -0.1270 -0.1311
11157SOL    HW134912   2.479   6.306   9.354 -0.3101  0.0998  1.4077
11157SOL    HW234913   2.329   6.315   9.370 -0.6847  0.4507 -1.7788
11158SOL     OW34914   2.814   6.558  10.590 -0.4445  0.2852  0.8025
11158SOL    HW134915   2.721   6.564  10.611 -0.2796 -1.1110  2.0402
11158SOL    HW234916   2.859   6.583  10.670  0.2342 -0.3379  0.6283
11159SOL     OW34917   3.371   4.737  10.431  0.3301  0.0187  0.1092
11159SOL    HW134918   3.394   4.805  10.494 -1.5694  0.0978  0.8038
11159SOL    HW234919   3.302   4.776  10.377 -0.7946 -1.3105  0.5164
11160SOL     OW34920   3.783   6.696  10.350  0.1008  0.1554 -0.1415
11160SOL    HW134921   3.830   6.657  10.276 -0.0642  0.2248 -0.2835
11160SOL    HW234922   3.850   6.706  10.418  0.2659  0.1441 -0.3016
11161SOL     OW34923   4.007   5.833   9.190  0.2965  0.3589  0.6629
11161SOL    HW134924   3.971   5.875   9.112 -0.4090 -1.3420  0.0199
11161SOL    HW234925   4.013   5.740   9.167  1.8407  0.0816  1.9941
11162SOL     OW34926   2.977   5.324  10.056 -0.2061 -0.6251  0.1907
11162SOL    HW134927   3.063   5.335  10.016 -1.0445 -2.2417 -2.2612
11162SOL    HW234928   2.932   5.407  10.039  0.5007 -0.1544  0.5656
11163SOL     OW34929   4.775   5.277   9.628  0.1862  0.3667 -0.0103
11163SOL    HW134930   4.711   5.279   9.557 -0.3268  2.4675  0.4488
11163SOL    HW234931   4.728   5.312   9.704  1.5937  1.0798  0.5763
11164SOL     OW34932   3.452   4.914   9.913  0.2293 -0.3753  0.8202
11164SOL    HW134933   3.528   4.930   9.857  0.7014  0.6563  1.7047
11164SOL    HW234934   3.459   4.821   9.937  0.8374 -0.4532  0.3505
11165SOL     OW34935   1.216   7.481  10.425  0.0704  0.2440  0.0814
11165SOL    HW134936   1.293   7.483  10.369 -0.9512  0.9066 -1.3344
11165SOL    HW234937   1.180   7.393  10.412  1.9688 -1.1187  2.8026
11166SOL     OW34938   1.771   7.049   9.820 -0.2533 -0.3149  0.4900
11166SOL    HW134939   1.862   7.038   9.848 -0.6205  0.0463  1.8968
11166SOL    HW234940   1.772   7.024   9.727  1.3680  0.1779  0.3366
11167SOL     OW34941   3.699   6.814  11.349  0.4405 -0.0767  0.3797
11167SOL    HW134942   3.756   6.815  11.272 -2.2427  0.1328 -1.7592
11167SOL    HW234943   3.651   6.731  11.342  0.1216 -0.0332  1.8170
11168SOL     OW34944   0.800   7.467   8.718 -0.3941 -0.2968 -0.2401
11168SOL    HW134945   0.808   7.376   8.745 -1.8756  0.1627  2.1439
11168SOL    HW234946   0.798   7.516   8.800  0.2319  1.8870 -1.4426
11169SOL     OW34947   3.752   6.408  11.691  0.2132 -0.3434 -0.0836
11169SOL    HW134948   3.666   6.371  11.669  0.8222 -1.0597 -1.3624
11169SOL    HW234949   3.758   6.487  11.638  0.2906 -0.2069  0.1249
11170SOL     OW34950   1.408   6.604   9.552 -0.6972  0.5052  0.3434
11170SOL    HW134951   1.321   6.641   9.571 -0.4126  0.9423  0.8263
11170SOL    HW234952   1.392   6.510   9.544 -1.2779  0.6206  0.0451
11171SOL     OW34953   2.506   7.141  10.487 -0.1161 -0.4670 -0.2786
11171SOL    HW134954   2.543   7.159  10.573  1.5947 -0.0337 -1.0776
11171SOL    HW234955   2.413   7.124  10.505 -0.6848  3.2613  1.2520
11172SOL     OW34956   2.099   7.631   8.794  0.4208  0.7075  0.1929
11172SOL    HW134957   2.009   7.634   8.762  0.6711  3.1613 -0.4782
11172SOL    HW234958   2.139   7.712   8.761  3.0128 -0.5092  0.0876
11173SOL     OW34959   2.535   5.620   9.397  0.0059 -0.3311 -0.0642
11173SOL    HW134960   2.539   5.569   9.316  1.6256 -0.6273  0.1837
11173SOL    HW234961   2.596   5.691   9.385 -0.6863  0.3656  0.4249
11174SOL     OW34962   2.937   6.086  11.644  0.2520 -0.0379  0.2288
11174SOL    HW134963   2.958   6.017  11.706 -0.3683  0.0381  0.5270
11174SOL    HW234964   2.841   6.089  11.642  0.2663  0.8544  0.2701
11175SOL     OW34965   1.892   5.659   8.835  0.1133 -0.6365  0.1192
11175SOL    HW134966   1.988   5.658   8.828  0.0850 -1.5893 -0.3017
11175SOL    HW234967   1.874   5.686   8.925  0.7457  0.9954 -0.2245
11176SOL     OW34968   4.221   6.613  10.326  0.2567 -0.0192  0.0196
11176SOL    HW134969   4.310   6.637  10.300  0.1152 -0.7761 -1.2622
11176SOL    HW234970   4.220   6.623  10.421  2.1233 -1.2542  0.2248
11177SOL     OW34971   2.187   6.354   9.460 -0.1611 -0.1411 -0.5380
11177SOL    HW134972   2.140   6.273   9.480 -1.0000  0.3187 -0.5976
11177SOL    HW234973   2.142   6.421   9.510  0.1262  0.3925 -0.9810
11178SOL     OW34974   3.205   6.287   9.383 -0.3215 -0.0079 -0.4123
11178SOL    HW134975   3.152   6.217   9.345  0.3027  0.3804 -2.1120
11178SOL    HW234976   3.168   6.368   9.346 -0.8377  0.5711  1.2712
11179SOL     OW34977   3.152   0.117  10.329 -0.2622  0.0530  0.3306
11179SOL    HW134978   3.119   0.071  10.252 -1.1331  1.8206 -0.4039
11179SOL    HW234979   3.246   0.100  10.329 -0.0074  1.0909 -1.9283
11180SOL     OW34980   4.362   7.565  11.128 -0.1231  0.6650 -0.2183
11180SOL    HW134981   4.386   7.475  11.148 -1.3460  0.2266 -0.6389
11180SOL    HW234982   4.279   7.558  11.081 -0.0133  1.9851 -0.6560
11181SOL     OW34983   2.945   6.800  10.423 -0.1885  0.3547 -0.0108
11181SOL    HW134984   2.906   6.858  10.489 -0.0094  2.0378 -1.3134
11181SOL    HW234985   2.871   6.767  10.373 -0.2061  0.4988 -0.0810
11182SOL     OW34986   0.438   5.036  12.016  0.4034  0.4713 -0.6916
11182SOL    HW134987   0.437   4.940  12.008 -1.8370  0.3595  0.2233
11182SOL    HW234988   0.528   5.056  12.043  0.4936 -1.5531  0.7957
11183SOL     OW34989   2.862   6.625  11.153 -0.0832 -0.2659  0.3728
11183SOL    HW134990   2.957   6.634  11.149  0.1050 -0.9891  2.0822
11183SOL    HW234991   2.844   6.545  11.103  0.0958  0.3152 -0.6473
11184SOL     OW34992   3.078   7.508  11.378  0.6745 -0.0500 -0.2066
11184SOL    HW134993   3.123   7.523  11.461 -1.2943  2.1289  0.5699
11184SOL    HW234994   3.000   7.458  11.401  0.3293  0.2068 -0.7947
11185SOL     OW34995   2.784   7.211  10.325  0.7057  0.2935 -0.1481
11185SOL    HW134996   2.698   7.194  10.365 -0.2641  0.7732 -1.9117
11185SOL    HW234997   2.769   7.287  10.269  1.7345 -0.9285 -2.1786
11186SOL     OW34998   1.373   6.085  10.896 -0.2827 -0.3388  0.3097
11186SOL    HW134999   1.457   6.096  10.852 -0.8511 -0.4360 -0.8500
11186SOL    HW235000   1.334   6.173  10.895 -0.8273 -0.5808 -0.5177
11187SOL     OW35001   4.761   7.623   9.349 -0.0332  0.0656  0.7585
11187SOL    HW135002   4.815   7.591   9.420  0.0447  1.7070  1.4777
11187SOL    HW235003   4.680   7.652   9.391 -0.4212  0.0814  0.0275
11188SOL     OW35004   3.089   7.181  10.567 -0.2741  0.3768  0.3495
11188SOL    HW135005   3.152   7.238  10.524 -0.9130  1.2445  0.5331
11188SOL    HW235006   3.016   7.239  10.590 -0.5663 -0.3498  1.3116
11189SOL     OW35007   0.674   5.343  11.008  0.2659  0.1791 -0.5741
11189SOL    HW135008   0.713   5.277  10.950  1.2973  0.0861  0.2076
11189SOL    HW235009   0.722   5.335  11.090  0.0322  1.5318 -0.2804
11190SOL     OW35010   3.042   5.621  11.319  0.0870 -0.8202 -0.4693
11190SOL    HW135011   2.952   5.653  11.307  0.4313  0.6504  0.6889
11190SOL    HW235012   3.072   5.603  11.230 -0.9383 -0.1576 -0.9779
11191SOL     OW35013   1.842   6.650  10.556 -0.0308 -0.1222 -0.2262
11191SOL    HW135014   1.767   6.662  10.498 -1.3560 -2.5215  0.8174
11191SOL    HW235015   1.910   6.614  10.499  0.0713  1.2427 -1.0106
11192SOL     OW35016   0.271   1.070   8.496  0.2393  0.0340  0.2664
11192SOL    HW135017   0.238   1.158   8.479 -0.2343 -0.3720 -0.9959
11192SOL    HW235018   0.222   1.014   8.437  1.8303 -0.8370 -0.2757
11193SOL     OW35019   3.894   5.277  10.858 -0.4070  0.6142 -0.1103
11193SOL    HW135020   3.979   5.238  10.881 -0.4236  0.4876 -0.2675
11193SOL    HW235021   3.916   5.367  10.834 -0.6488  1.4812  2.5958
11194SOL     OW35022   3.263   6.276  11.295 -0.3952  0.8383  0.5277
11194SOL    HW135023   3.323   6.313  11.359 -0.6746 -0.2318  1.4338
11194SOL    HW235024   3.178   6.273  11.340 -0.3356 -1.1037  0.5936
11195SOL     OW35025   4.630   6.255  10.609 -0.7623 -0.1610 -0.1789
11195SOL    HW135026   4.682   6.261  10.689 -1.5504 -0.9154  0.4004
11195SOL    HW235027   4.606   6.163  10.602  0.8065 -0.4998 -2.2878
11196SOL     OW35028   4.529   6.588   9.983  0.6854 -1.1374 -0.2727
11196SOL    HW135029   4.489   6.530   9.918  1.9305 -0.3961 -1.7604
11196SOL    HW235030   4.499   6.676   9.958  2.2660 -0.6910 -0.7468
11197SOL     OW35031   3.441   7.299   0.371 -0.3647 -0.3848 -0.1738
11197SOL    HW135032   3.521   7.332   0.412 -0.6604  0.5030 -0.3049
11197SOL    HW235033   3.446   7.329   0.280  0.4599 -2.6419 -0.9527
11198SOL     OW35034   2.830   6.124   9.969 -0.2902  0.2758 -0.0979
11198SOL    HW135035   2.923   6.123   9.991 -0.2324  0.5179 -0.3209
11198SOL    HW235036   2.810   6.217   9.953 -0.5370  0.2094 -0.1807
11199SOL     OW35037   2.818   7.281  10.624 -0.2948 -1.0317 -0.9315
11199SOL    HW135038   2.771   7.360  10.597  1.0783  0.2493  0.2201
11199SOL    HW235039   2.749   7.220  10.649 -1.3982  0.6585  0.3999
11200SOL     OW35040   4.019   6.234  10.733 -0.6591  0.4457 -0.1115
11200SOL    HW135041   4.058   6.272  10.655  2.6598  0.2496  1.3201
11200SOL    HW235042   4.001   6.143  10.709 -2.4471  1.0880 -1.4597
11201SOL     OW35043   2.283   7.647  11.614 -0.6166 -0.7418 -0.3763
11201SOL    HW135044   2.257   7.737  11.633 -0.9563 -0.7127 -0.9555
11201SOL    HW235045   2.335   7.654  11.534 -0.4806 -1.0400 -0.3148
11202SOL     OW35046   2.722   6.539   9.134 -0.2746  1.1097  0.5140
11202SOL    HW135047   2.670   6.459   9.148 -0.2767  1.4252  2.6389
11202SOL    HW235048   2.782   6.516   9.063 -1.9563  0.0799 -0.6744
11203SOL     OW35049   3.051   5.946  11.037 -0.3948 -0.1513 -0.0325
11203SOL    HW135050   3.134   5.971  11.078  0.2487 -1.6513 -0.3217
11203SOL    HW235051   3.030   6.018  10.977  0.8042  0.1647 -0.0956
11204SOL     OW35052   3.347   7.443   9.813 -0.7192  0.2430  0.2170
11204SOL    HW135053   3.361   7.441   9.718 -0.7467 -0.1113  0.2181
11204SOL    HW235054   3.393   7.365   9.845  0.5241  1.1310  0.6616
11205SOL     OW35055   3.495   4.267  10.072  0.5116 -0.4366  1.1720
11205SOL    HW135056   3.567   4.311  10.028 -0.5085  0.0593 -0.0700
11205SOL    HW235057   3.429   4.336  10.085 -1.8917 -1.7383 -2.4446
11206SOL     OW35058   2.419   7.694   8.841  0.1001  0.3789  0.4061
11206SOL    HW135059   2.440   7.731   8.756  2.2589  0.1362  0.7810
11206SOL    HW235060   2.377   7.765   8.889 -0.9739  0.5671 -0.7662
11207SOL     OW35061   2.255   7.780   9.584  0.4597  0.7181 -0.0676
11207SOL    HW135062   2.168   7.795   9.622  0.4792 -0.2605  0.4024
11207SOL    HW235063   2.248   7.694   9.543  1.6221 -0.0422  1.2648
11208SOL     OW35064   4.332   6.158  10.446 -0.0425  0.5259 -0.1143
11208SOL    HW135065   4.388   6.111  10.508 -1.6245 -1.9429 -0.4198
11208SOL    HW235066   4.392   6.209  10.393  1.8128 -1.0663  0.3540
11209SOL     OW35067   3.234   7.190  12.314  0.2741 -0.1321  0.3472
11209SOL    HW135068   3.191   7.225  12.392  0.2787 -0.2073  0.3845
11209SOL    HW235069   3.161   7.160  12.258  0.1434  1.8885 -0.6531
11210SOL     OW35070   2.261   7.076  12.286 -0.3290  0.0039  0.3344
11210SOL    HW135071   2.166   7.079  12.294 -0.3474  1.8086 -0.1558
11210SOL    HW235072   2.291   7.158  12.325  0.9791 -0.2157 -0.1664
11211SOL     OW35073   3.106   7.611  10.857  0.6800 -0.0993 -0.2878
11211SOL    HW135074   3.032   7.632  10.914  0.2558 -0.6682 -0.6163
11211SOL    HW235075   3.095   7.668  10.781 -0.0363 -0.9324 -0.8274
11212SOL     OW35076   3.371   6.710   9.069  0.4479  0.0213  0.3225
11212SOL    HW135077   3.400   6.791   9.026 -0.2554 -0.5232 -1.2633
11212SOL    HW235078   3.447   6.682   9.121  0.1044  2.5965  2.3534
11213SOL     OW35079   0.354   4.482  11.029  0.3423  0.2653 -0.0332
11213SOL    HW135080   0.331   4.394  11.060 -0.2890  0.0668 -1.0324
11213SOL    HW235081   0.405   4.519  11.101 -0.5766 -0.3933  1.0112
11214SOL     OW35082   3.850   7.426   9.361 -0.5607  0.6851 -0.2563
11214SOL    HW135083   3.898   7.490   9.414  1.0085  0.4995 -1.3973
11214SOL    HW235084   3.912   7.399   9.294 -1.9206 -0.4229 -1.1168
11215SOL     OW35085   1.440   6.869   9.471 -0.1774 -0.3612  0.2825
11215SOL    HW135086   1.405   6.851   9.384 -0.5953  0.7037  0.2138
11215SOL    HW235087   1.444   6.783   9.514 -1.7567 -0.6699 -0.1281
11216SOL     OW35088   2.630   5.544  10.909 -0.4756 -0.2387  0.5972
11216SOL    HW135089   2.552   5.513  10.956  0.0826  0.4674  2.0489
11216SOL    HW235090   2.703   5.506  10.957  0.2017 -4.0659 -2.9063
11217SOL     OW35091   2.584   6.553   9.579 -0.2644 -0.2690 -0.3723
11217SOL    HW135092   2.630   6.488   9.525  2.2411  0.3591  0.8298
11217SOL    HW235093   2.514   6.504   9.621 -0.1527 -1.5358 -1.5908
11218SOL     OW35094   1.728   4.344  10.782  0.5898  0.3884  0.3645
11218SOL    HW135095   1.811   4.378  10.816  1.9886 -2.5396  0.2187
11218SOL    HW235096   1.714   4.391  10.700  2.5455  0.3887 -0.0162
11219SOL     OW35097   2.168   4.860   9.429  0.0823  0.1343 -0.6895
11219SOL    HW135098   2.138   4.911   9.353  1.9046 -0.9024 -2.2047
11219SOL    HW235099   2.155   4.769   9.403  0.6193 -0.2331  0.2916
11220SOL     OW35100   4.278   5.016  10.265 -0.4571  0.4890 -0.0734
11220SOL    HW135101   4.369   5.010  10.237  0.2511 -0.9459  2.2662
11220SOL    HW235102   4.235   4.944  10.219 -0.2897  0.7848 -0.7047
11221SOL     OW35103   4.857   5.921   9.343 -0.2445  0.1680 -0.3186
11221SOL    HW135104   4.828   5.990   9.402  1.4718 -1.3016  2.4417
11221SOL    HW235105   4.910   5.965   9.277 -2.1366  1.8524 -0.8061
11222SOL     OW35106   2.797   5.058  10.858 -0.3838  0.4868 -0.4984
11222SOL    HW135107   2.728   4.992  10.851 -1.1150  1.3429 -1.7267
11222SOL    HW235108   2.876   5.008  10.877 -1.1726 -0.6004  0.0123
11223SOL     OW35109   1.981   5.765  11.313  0.2606 -0.0324 -0.2084
11223SOL    HW135110   2.068   5.805  11.308  0.2586 -0.1772 -3.1333
11223SOL    HW235111   1.930   5.824  11.368  1.9491  0.5304  0.8130
11224SOL     OW35112   3.398   6.168   9.982 -0.0244 -0.3598 -0.3253
11224SOL    HW135113   3.396   6.127   9.895  0.0413 -0.6586 -0.1892
11224SOL    HW235114   3.464   6.117  10.030 -1.8652 -1.8707  0.7216
11225SOL     OW35115   3.792   5.247  10.032  0.0097 -0.1765 -0.2886
11225SOL    HW135116   3.858   5.181  10.052  1.6171  1.2812 -0.5546
11225SOL    HW235117   3.770   5.232   9.940  0.8283  0.0264 -0.5245
11226SOL     OW35118   1.809   5.674  10.683  0.0051  0.2955  0.6099
11226SOL    HW135119   1.756   5.753  10.668  3.7885  3.4425  2.1426
11226SOL    HW235120   1.806   5.661  10.778 -0.6204 -1.5701  0.3763
11227SOL     OW35121   3.996   6.133   9.923 -0.5696 -0.2289 -0.0380
11227SOL    HW135122   4.088   6.108   9.927  0.0006  1.4665 -1.1660
11227SOL    HW235123   3.991   6.215   9.972 -1.8667 -1.1743  1.5054
11228SOL     OW35124   1.158   6.602   9.667 -0.4040  0.3852  0.5539
11228SOL    HW135125   1.174   6.606   9.761  0.7223 -1.4880  0.4969
11228SOL    HW235126   1.074   6.646   9.655 -1.0248 -0.1608  2.5459
11229SOL     OW35127   2.804   6.992  11.121 -0.6012 -0.0548 -0.3272
11229SOL    HW135128   2.750   7.050  11.066 -0.9538 -1.0841 -1.1143
11229SOL    HW235129   2.809   7.036  11.205  0.8145  2.0848 -1.4568
11230SOL     OW35130   2.377   5.113   9.221  0.4622  0.9545  0.1369
11230SOL    HW135131   2.470   5.133   9.228  0.9677 -1.4166  1.2616
11230SOL    HW235132   2.374   5.018   9.207 -1.7039  1.3489 -3.2274
11231SOL     OW35133   2.829   6.799   9.489  0.0744  0.2771 -0.0078
11231SOL    HW135134   2.853   6.718   9.534 -1.8845  0.5731  1.7690
11231SOL    HW235135   2.779   6.770   9.412  2.0172 -0.2105 -1.1319
11232SOL     OW35136   2.750   7.606   9.286  0.1126 -0.7564 -0.2353
11232SOL    HW135137   2.758   7.631   9.194 -0.7841  0.8084  0.0604
11232SOL    HW235138   2.682   7.665   9.320  0.3393 -1.3945  1.3894
11233SOL     OW35139   3.268   6.327   8.577 -0.1341  0.1935  0.4228
11233SOL    HW135140   3.354   6.340   8.537 -1.2521  0.8909 -1.8934
11233SOL    HW235141   3.217   6.403   8.550 -1.5816 -0.3524  1.5082
11234SOL     OW35142   3.653   5.543   9.952 -0.1761 -0.3563  0.0414
11234SOL    HW135143   3.737   5.532   9.906  0.5726  1.9379  0.7115
11234SOL    HW235144   3.587   5.533   9.883  0.8304  0.9112 -1.1814
11235SOL     OW35145   1.182   6.076  11.110  0.2621  0.1463  1.0068
11235SOL    HW135146   1.228   6.082  11.193  0.2140  0.9453  0.9908
11235SOL    HW235147   1.249   6.053  11.046  0.4541  0.3351  1.1407
11236SOL     OW35148   2.567   4.931  10.889  0.3185 -0.3217  0.0580
11236SOL    HW135149   2.611   4.973  10.963  0.8033  0.4235 -0.6438
11236SOL    HW235150   2.474   4.941  10.909  0.4417 -0.3864  0.7068
11237SOL     OW35151   2.055   6.387  10.744 -0.0681 -0.4165  0.1509
11237SOL    HW135152   2.094   6.299  10.750 -0.5747 -0.5597  3.2077
11237SOL    HW235153   2.126   6.446  10.770 -0.3600 -0.1599  0.3685
11238SOL     OW35154   3.527   4.238   9.406  0.6494  0.0543  0.2010
11238SOL    HW135155   3.619   4.244   9.379  0.8162 -2.1605  0.1595
11238SOL    HW235156   3.484   4.308   9.356  1.7178 -1.0316 -2.4341
11239SOL     OW35157   2.553   7.953  10.829 -0.3005 -0.0590 -0.2531
11239SOL    HW135158   2.618   8.011  10.870 -1.9035  1.4882  0.2491
11239SOL    HW235159   2.600   7.872  10.813  2.5612  1.8049 -2.3705
11240SOL     OW35160   2.582   6.414  10.290  0.1997  0.0816  0.6165
11240SOL    HW135161   2.569   6.383  10.201  1.6936 -0.8550  0.7018
11240SOL    HW235162   2.511   6.374  10.340 -1.2836  1.4544 -0.2966
11241SOL     OW35163   4.104   6.225   8.645 -0.0899  0.0553 -0.1490
11241SOL    HW135164   4.090   6.319   8.647  1.2373  0.3604 -2.0351
11241SOL    HW235165   4.190   6.213   8.684  0.5170 -0.1372 -1.4831
11242SOL     OW35166   4.158   5.954  10.428 -0.0763 -0.4762  0.3863
11242SOL    HW135167   4.222   5.886  10.404  0.4206  0.2840 -0.5222
11242SOL    HW235168   4.207   6.036  10.420 -1.3669  0.1972 -1.0887
11243SOL     OW35169   3.065   5.704   9.134  0.0819 -0.3598 -0.5292
11243SOL    HW135170   3.069   5.749   9.050 -0.2973  0.8791  0.0832
11243SOL    HW235171   2.976   5.669   9.139 -0.8589  1.9578  0.4793
11244SOL     OW35172   2.719   5.586   8.990  0.3292  0.0885 -0.2894
11244SOL    HW135173   2.678   5.530   9.056 -0.3651  0.9232  0.0051
11244SOL    HW235174   2.686   5.674   9.010  0.4299  0.4116 -1.5071
11245SOL     OW35175   1.810   6.242   9.237  0.0782  0.2117  0.3202
11245SOL    HW135176   1.729   6.213   9.279 -0.9235 -0.5514 -1.9699
11245SOL    HW235177   1.806   6.338   9.241  0.1361  0.1782  2.0562
11246SOL     OW35178   2.535   5.614  12.215  0.6250  0.3035  0.2961
11246SOL    HW135179   2.492   5.689  12.255  0.2001 -0.3168  1.0077
11246SOL    HW235180   2.550   5.553  12.287  0.6790 -0.4358 -0.3330
11247SOL     OW35181   3.501   6.283  11.674  0.4381 -0.0417 -0.3976
11247SOL    HW135182   3.505   6.255  11.582  1.1813 -0.8508 -0.1407
11247SOL    HW235183   3.482   6.203  11.723 -2.4844  0.7909 -0.0042
11248SOL     OW35184   1.571   0.199  12.288  0.7130  0.4942  0.1387
11248SOL    HW135185   1.491   0.238  12.324  0.9202  1.4105 -0.3568
11248SOL    HW235186   1.574   0.231  12.198  1.8066  0.7494  0.2568
11249SOL     OW35187   2.206   6.565  11.361 -0.2998 -0.0702  0.2990
11249SOL    HW135188   2.229   6.657  11.349 -0.8592  0.2624  1.5633
11249SOL    HW235189   2.282   6.528  11.407  0.0150 -0.3036 -0.3945
11250SOL     OW35190   3.269   7.887  10.025  0.3695  0.3226 -0.2094
11250SOL    HW135191   3.332   7.875  10.096  1.6001 -1.7667 -1.5310
11250SOL    HW235192   3.299   7.965   9.978  0.5315  0.7191  0.5362
11251SOL     OW35193   2.890   5.579   9.983 -0.1411 -0.0530  0.3248
11251SOL    HW135194   2.853   5.667   9.990 -0.7081 -0.3650  1.6060
11251SOL    HW235195   2.860   5.547   9.897 -2.9198 -0.2849  1.2726
11252SOL     OW35196   0.310   6.942  10.132 -0.1772 -0.5189  0.2114
11252SOL    HW135197   0.223   6.904  10.121 -0.7050  0.7605 -0.2272
11252SOL    HW235198   0.303   6.997  10.210  0.2847 -0.5387  0.2705
11253SOL     OW35199   4.552   7.292   8.831  0.2966 -0.0314 -0.3264
11253SOL    HW135200   4.491   7.219   8.823  0.3746  0.0387 -2.1740
11253SOL    HW235201   4.614   7.265   8.898  0.0975 -1.5066 -0.7002
11254SOL     OW35202   2.480   6.168  11.660 -0.0015 -0.3521 -0.0513
11254SOL    HW135203   2.564   6.142  11.622 -0.5688 -1.7751 -0.3999
11254SOL    HW235204   2.437   6.218  11.591 -0.7607 -2.3846 -1.1226
11255SOL     OW35205   0.202   4.854  11.111  0.3749  0.0668  0.0561
11255SOL    HW135206   0.258   4.922  11.072  0.3273 -0.2958 -0.6734
11255SOL    HW235207   0.259   4.809  11.173  0.5469  0.4714  0.1952
11256SOL     OW35208   2.139   0.273  11.481 -0.1004 -0.3265 -0.5022
11256SOL    HW135209   2.049   0.306  11.478  0.9952  2.9276 -2.3198
11256SOL    HW235210   2.178   0.317  11.556  0.5741  0.0629 -1.0756
11257SOL     OW35211   1.130   7.546   9.853 -0.0644 -0.0568 -0.2953
11257SOL    HW135212   1.037   7.570   9.846  0.3598  1.2889 -1.8040
11257SOL    HW235213   1.144   7.484   9.781  0.6044  1.2029 -1.2917
11258SOL     OW35214   0.625   0.526   8.833  0.1415 -0.5534 -0.5822
11258SOL    HW135215   0.702   0.522   8.891 -0.3829 -1.3902  0.0853
11258SOL    HW235216   0.586   0.439   8.840  0.8544 -1.1959 -3.3175
11259SOL     OW35217   3.109   7.757   9.353 -0.3178  0.3452 -0.6706
11259SOL    HW135218   3.136   7.677   9.309 -0.9985 -0.2567 -0.0387
11259SOL    HW235219   3.053   7.727   9.425  1.4873  1.1937  1.1937
11260SOL     OW35220   4.883   5.636  10.882 -0.3024  0.0093  0.0075
11260SOL    HW135221   4.860   5.558  10.932 -1.3652  0.1157 -0.2879
11260SOL    HW235222   4.839   5.625  10.798  1.9232 -0.4319 -1.1660
11261SOL     OW35223   4.766   5.444   8.620  0.2143 -0.0012 -0.0056
11261SOL    HW135224   4.681   5.421   8.582  1.1762 -0.7776 -1.7921
11261SOL    HW235225   4.792   5.524   8.574  0.0410  0.7859  1.2231
11262SOL     OW35226   1.277   5.041   8.899 -0.6078  0.8430 -0.0830
11262SOL    HW135227   1.295   5.083   8.983 -0.9585  0.1309  0.3582
11262SOL    HW235228   1.226   5.106   8.851  0.5718  1.7103 -0.2104
11263SOL     OW35229   2.466   5.618  10.300  0.3368 -0.0801  0.8662
11263SOL    HW135230   2.497   5.668  10.376 -2.6745  0.6559  1.7376
11263SOL    HW235231   2.384   5.579  10.329 -0.1507 -1.0122 -1.5678
11264SOL     OW35232   3.481   6.190   0.922 -0.2123 -0.1810  0.8532
11264SOL    HW135233   3.403   6.159   0.968 -0.9750  0.3937 -0.0241
11264SOL    HW235234   3.544   6.117   0.930 -1.8085 -1.8429 -0.8335
11265SOL     OW35235   4.106   4.739  10.910 -0.4456  0.6459 -0.7543
11265SOL    HW135236   4.074   4.650  10.895  0.0921  0.3198 -0.0217
11265SOL    HW235237   4.076   4.788  10.833 -2.3617  0.2810 -0.2907
11266SOL     OW35238   2.315   4.755   9.659 -0.0452  0.0971  0.1434
11266SOL    HW135239   2.289   4.791   9.574 -1.9946 -2.1126 -0.2910
11266SOL    HW235240   2.376   4.684   9.637 -0.3972 -0.3533  0.5974
11267SOL     OW35241   2.605   6.749  10.841  0.2994 -0.0695 -0.1658
11267SOL    HW135242   2.542   6.803  10.889  1.0041  0.9463 -0.3554
11267SOL    HW235243   2.688   6.761  10.888  1.1948  1.5570 -1.9927
11268SOL     OW35244   3.601   6.839  10.587  0.1298 -0.2151 -0.1479
11268SOL    HW135245   3.518   6.883  10.603 -1.0223 -1.6234 -1.8645
11268SOL    HW235246   3.663   6.883  10.644 -1.3254  2.3224 -0.3955
11269SOL     OW35247   1.093   5.110   8.638  0.1720  0.3438  0.0121
11269SOL    HW135248   1.092   5.019   8.608 -1.4883 -0.0545  1.1360
11269SOL    HW235249   1.140   5.157   8.569 -0.6266 -1.0587 -1.5768
11270SOL     OW35250   2.521   5.325  10.387 -0.0684  0.1403  0.3324
11270SOL    HW135251   2.472   5.389  10.439  1.5479  1.3831  0.3807
11270SOL    HW235252   2.613   5.346  10.402  0.4800 -0.0826 -2.2173
11271SOL     OW35253   1.773   7.883   9.578  0.2345  0.5843 -0.1244
11271SOL    HW135254   1.825   7.842   9.509 -0.6146 -0.7535  0.0097
11271SOL    HW235255   1.737   7.962   9.536 -0.7334 -0.4964 -1.4473
11272SOL     OW35256   2.552   6.490  11.285  0.1158 -0.2774 -0.6233
11272SOL    HW135257   2.524   6.401  11.263 -0.9098 -0.0437 -0.3190
11272SOL    HW235258   2.503   6.546  11.225 -0.0352  0.1461 -0.1065
11273SOL     OW35259   5.145   5.995   9.801 -0.0138 -0.1247 -0.1945
11273SOL    HW135260   5.125   6.084   9.771  1.6126  0.7411  1.1289
11273SOL    HW235261   5.147   5.943   9.720 -1.3656  0.9167 -0.9568
11274SOL     OW35262   2.601   4.944   8.842  0.4789  0.1982  0.4676
11274SOL    HW135263   2.608   4.879   8.912  0.4588  0.8210  1.0611
11274SOL    HW235264   2.538   5.008   8.875  0.6548  0.6295 -0.0180
11275SOL     OW35265   2.701   4.661   8.728 -0.0581  0.6649 -0.0307
11275SOL    HW135266   2.631   4.599   8.706 -0.6308  1.5969 -0.9455
11275SOL    HW235267   2.693   4.675   8.822 -0.0732 -0.4365  0.1524
11276SOL     OW35268   3.740   6.862  10.105 -0.5454  0.5405 -0.4418
11276SOL    HW135269   3.760   6.798  10.037  0.7755 -0.0771  0.4938
11276SOL    HW235270   3.825   6.888  10.141 -0.7756  4.4575 -2.1603
11277SOL     OW35271   2.301   7.232  11.033  0.4550 -0.2123 -0.0503
11277SOL    HW135272   2.339   7.172  11.098  1.1235 -0.5414 -0.7356
11277SOL    HW235273   2.226   7.184  10.998  1.4552 -1.0091 -1.1732
11278SOL     OW35274   3.644   6.215  11.381 -0.5271 -0.0641  0.5790
11278SOL    HW135275   3.666   6.190  11.291 -1.9746  0.5041  0.0277
11278SOL    HW235276   3.671   6.141  11.435 -1.4424 -1.2711 -0.5654
11279SOL     OW35277   3.877   5.469  11.353 -0.1727 -0.5457  0.2850
11279SOL    HW135278   3.856   5.394  11.297 -0.9182 -0.2093  0.1002
11279SOL    HW235279   3.972   5.477  11.347 -0.3739  1.0414 -2.9925
11280SOL     OW35280   2.453   6.758   7.868 -0.2380 -0.0965  0.1800
11280SOL    HW135281   2.541   6.726   7.848 -0.8865 -2.5498  0.9271
11280SOL    HW235282   2.400   6.731   7.792 -0.8569 -1.1996  0.9624
11281SOL     OW35283   2.302   4.960  10.528  0.1637  0.2874  0.4075
11281SOL    HW135284   2.283   4.867  10.514 -0.2465 -0.1079  3.0353
11281SOL    HW235285   2.381   4.976  10.476 -0.1795 -1.3165 -0.6980
11282SOL     OW35286   1.784   7.554   8.837 -0.3806  0.7597  0.0266
11282SOL    HW135287   1.767   7.634   8.887 -1.3663 -0.0378  1.0249
11282SOL    HW235288   1.844   7.504   8.892 -1.7016 -0.2517  0.5987
11283SOL     OW35289   3.162   4.849  10.244  0.5129 -0.0865 -0.2679
11283SOL    HW135290   3.103   4.797  10.189  0.3307 -0.7504  0.5298
11283SOL    HW235291   3.214   4.899  10.182 -0.7888  0.4128 -0.9993
11284SOL     OW35292   3.453   6.757  11.685  0.3289  0.3836  0.7025
11284SOL    HW135293   3.449   6.675  11.734  0.3061  0.7428  1.3105
11284SOL    HW235294   3.547   6.773  11.673  0.3168 -0.2587 -0.3238
11285SOL     OW35295   1.236   6.586   9.935  0.2860  0.2406  0.2862
11285SOL    HW135296   1.170   6.535   9.981  0.3608  0.1340  0.2758
11285SOL    HW235297   1.319   6.558   9.974  0.5274 -1.2575 -1.2172
11286SOL     OW35298   2.022   7.799   8.430 -0.5149 -0.2561  0.5021
11286SOL    HW135299   2.057   7.857   8.362 -1.5728 -1.2498 -0.9342
11286SOL    HW235300   2.026   7.852   8.510 -1.4278  1.8180 -0.7376
11287SOL     OW35301   1.420   0.440   9.452 -0.0052  0.1160  0.0318
11287SOL    HW135302   1.344   0.464   9.505 -0.0836  1.7757 -0.7614
11287SOL    HW235303   1.464   0.371   9.502 -0.9021  0.5606  1.4899
11288SOL     OW35304   3.153   5.525   9.609 -0.1870 -0.0559  0.3102
11288SOL    HW135305   3.131   5.476   9.530  1.9498 -1.4648  0.5018
11288SOL    HW235306   3.108   5.478   9.680 -1.1995  0.5498  0.0878
11289SOL     OW35307   1.881   6.804  11.069  0.1799  0.2582 -0.3514
11289SOL    HW135308   1.792   6.836  11.083  0.1542 -0.0047  0.0958
11289SOL    HW235309   1.917   6.795  11.158  0.6306  0.3042 -0.5269
11290SOL     OW35310   3.552   4.938  10.287  0.0401 -0.1904  0.2861
11290SOL    HW135311   3.483   4.872  10.289  0.0299 -0.1751  0.5039
11290SOL    HW235312   3.533   4.991  10.210 -0.4913  0.1329  0.6360
11291SOL     OW35313   3.081   6.871   9.378  0.9201 -0.5176 -0.0030
11291SOL    HW135314   3.083   6.855   9.284  3.0589 -0.3304 -0.0423
11291SOL    HW235315   2.992   6.850   9.405 -0.8515  2.7221 -2.6121
11292SOL     OW35316   3.594   5.868   9.729  0.3053  0.3611  0.4389
11292SOL    HW135317   3.676   5.899   9.768 -1.3502  3.6966  1.6361
11292SOL    HW235318   3.530   5.873   9.801 -0.8557 -3.2522 -0.1126
11293SOL     OW35319   1.836   0.669  12.149  0.0416  0.2206 -0.2793
11293SOL    HW135320   1.758   0.662  12.094 -0.0069  0.2206 -0.2103
11293SOL    HW235321   1.815   0.621  12.229  0.1926  0.0385 -0.3491
11294SOL     OW35322   2.024   4.868  11.454 -0.2135 -0.1205  0.0315
11294SOL    HW135323   2.042   4.791  11.507 -0.9091 -0.0430  0.3865
11294SOL    HW235324   2.022   4.835  11.364 -1.5229 -0.7160  0.2566
11295SOL     OW35325   2.047   0.133   9.281 -0.5133 -1.0133  0.0989
11295SOL    HW135326   2.066   0.174   9.365 -0.7168 -1.5602  0.4196
11295SOL    HW235327   1.985   0.191   9.238  1.0761  0.2845 -0.5238
11296SOL     OW35328   2.291   5.477   9.447 -0.1033  0.4685 -0.5335
11296SOL    HW135329   2.370   5.532   9.447  0.5937 -0.4058  1.7717
11296SOL    HW235330   2.268   5.469   9.539 -1.9105 -0.7121 -1.0475
11297SOL     OW35331   2.466   5.361  11.019  0.6850 -0.0331  0.0530
11297SOL    HW135332   2.516   5.314  10.953 -1.5609 -1.7719 -0.5236
11297SOL    HW235333   2.495   5.324  11.103  0.1898 -1.2689 -0.2973
11298SOL     OW35334   2.050   6.991   9.752  0.2302 -0.3658  0.0721
11298SOL    HW135335   2.126   6.944   9.786 -1.0334  0.0127  3.8998
11298SOL    HW235336   2.087   7.069   9.709  2.0505 -0.6475  1.0190
11299SOL     OW35337   2.602   6.959   9.187  1.1452 -0.5544 -0.1681
11299SOL    HW135338   2.544   6.999   9.251  0.5731 -1.0170 -0.3880
11299SOL    HW235339   2.613   6.869   9.217  4.2824  0.2772  1.6303
11300SOL     OW35340   4.488   6.668  10.273 -0.1604 -0.2102 -0.2228
11300SOL    HW135341   4.580   6.660  10.298 -0.4002 -3.7843  0.0856
11300SOL    HW235342   4.488   6.648  10.179 -0.5751  0.6351 -0.4115
11301SOL     OW35343   3.494   0.095  10.874 -0.5510  0.3861 -0.3440
11301SOL    HW135344   3.500   0.180  10.832  0.1267  0.6286  0.2306
11301SOL    HW235345   3.545   0.036  10.818 -0.0561  0.6061 -0.1300
11302SOL     OW35346   1.532   0.199  11.592  0.2616  0.2742  0.0904
11302SOL    HW135347   1.500   0.125  11.642 -1.7829  1.0261  0.0046
11302SOL    HW235348   1.549   0.164  11.504  0.2290 -0.2770  0.3032
11303SOL     OW35349   2.073   0.751  10.887  0.3478  0.5066 -0.0539
11303SOL    HW135350   2.085   0.687  10.958  1.1594  0.6737 -0.0231
11303SOL    HW235351   2.019   0.820  10.924  0.2890  0.3096  0.2234
11304SOL     OW35352   3.762   4.491  10.926  0.0006 -0.2153  0.2046
11304SOL    HW135353   3.677   4.502  10.970 -0.4692 -0.1184 -0.6904
11304SOL    HW235354   3.760   4.557  10.856  1.2414  0.4675  0.7951
11305SOL     OW35355   2.328   6.058   9.189  0.2524 -0.4491 -0.0148
11305SOL    HW135356   2.351   6.017   9.272 -0.7772 -0.8089  0.1070
11305SOL    HW235357   2.330   6.152   9.206  1.2485 -0.4770  0.0779
11306SOL     OW35358   7.785   7.042  10.943  0.1129  0.2833 -0.5828
11306SOL    HW135359   7.777   6.984  11.018  1.5666  0.6864 -0.0848
11306SOL    HW235360   7.694   7.063  10.919 -0.3822 -0.3563  0.6493
11307SOL     OW35361   3.537   1.164   8.180 -0.0425 -0.1361 -0.4036
11307SOL    HW135362   3.624   1.124   8.183 -0.2683 -0.8381 -2.0292
11307SOL    HW235363   3.546   1.236   8.117 -0.1181  1.2491  1.0882
11308SOL     OW35364   3.205   6.904  12.114 -0.5003  0.1106  0.4396
11308SOL    HW135365   3.160   6.988  12.100  0.7950  0.8841  0.8107
11308SOL    HW235366   3.224   6.902  12.207 -0.1271 -0.4047  0.3560
11309SOL     OW35367   1.715   6.821   8.980  0.4096  0.0054  0.0605
11309SOL    HW135368   1.766   6.743   9.005 -0.4792 -0.6153  0.0064
11309SOL    HW235369   1.757   6.851   8.899  0.2349 -0.9471 -0.4032
11310SOL     OW35370   3.070   5.463  11.089  0.0740  0.0995  0.3038
11310SOL    HW135371   3.082   5.544  11.040  0.5847  2.0090  3.3590
11310SOL    HW235372   3.157   5.423  11.091  0.3035  0.5977  0.5688
11311SOL     OW35373   5.372   6.139   9.392  0.2202 -0.0408  0.4236
11311SOL    HW135374   5.405   6.180   9.472  0.0261  2.4336 -0.6593
11311SOL    HW235375   5.422   6.057   9.384  1.2655  0.3616  2.3057
11312SOL     OW35376   1.079   5.512   9.934 -0.2143  0.2950 -0.1293
11312SOL    HW135377   1.049   5.565   9.860  0.0313  0.3725 -0.1730
11312SOL    HW235378   1.090   5.424   9.898  0.3850  0.4371 -0.3073
11313SOL     OW35379   2.689   0.447   8.886  0.3044  0.2719 -0.3318
11313SOL    HW135380   2.596   0.425   8.882  0.2472  0.6270 -1.6888
11313SOL    HW235381   2.734   0.362   8.887 -0.0310  0.0890  1.1583
11314SOL     OW35382   2.375   6.394  11.506  0.0221  0.2907  0.5453
11314SOL    HW135383   2.296   6.386  11.560 -0.4347 -0.7805 -0.2377
11314SOL    HW235384   2.417   6.475  11.536  0.0535 -0.5015  2.8463
11315SOL     OW35385   4.596   4.755  11.603  0.3172  0.1014 -0.1535
11315SOL    HW135386   4.521   4.708  11.568 -0.2901 -0.1119  1.3824
11315SOL    HW235387   4.558   4.829  11.651  1.1539  0.7162 -0.4040
11316SOL     OW35388   3.565   0.860   8.263 -0.2841 -0.6007  0.6069
11316SOL    HW135389   3.637   0.910   8.225  0.0387  0.1605  2.1381
11316SOL    HW235390   3.486   0.903   8.231 -0.0793 -1.3120 -0.9141
11317SOL     OW35391   2.626   7.807  11.185  0.2386 -0.2431  0.4245
11317SOL    HW135392   2.645   7.901  11.197  0.9309 -0.3654  0.3276
11317SOL    HW235393   2.533   7.804  11.162  0.5973  0.5732 -1.3275
11318SOL     OW35394   1.741   4.511  10.160 -0.1087  0.2580  0.3887
11318SOL    HW135395   1.819   4.501  10.106 -0.2267 -1.4781  0.4720
11318SOL    HW235396   1.717   4.603  10.151  1.0392  0.4676 -0.8838
11319SOL     OW35397   1.668   5.976   9.096 -0.2220  0.0955 -0.1297
11319SOL    HW135398   1.694   5.944   9.182 -1.6093  1.0664  0.7073
11319SOL    HW235399   1.742   6.027   9.064  0.0489  0.2872  0.8056
11320SOL     OW35400   2.774   5.723   7.807  0.3836 -0.1811 -0.8245
11320SOL    HW135401   2.727   5.662   7.752 -0.2656  0.1340 -0.6341
11320SOL    HW235402   2.850   5.675   7.838  0.4772 -0.5217 -1.5763
11321SOL     OW35403   2.821   7.388   9.462  0.1984 -0.0456 -0.1212
11321SOL    HW135404   2.747   7.328   9.461 -0.5866  0.8331  1.0838
11321SOL    HW235405   2.805   7.447   9.388 -0.5014  0.3395  0.3241
11322SOL     OW35406   3.701   7.626   9.208 -0.0445 -0.2760 -0.3920
11322SOL    HW135407   3.753   7.555   9.247  0.6353  0.2575 -0.3085
11322SOL    HW235408   3.624   7.582   9.172 -0.6770 -0.7942  1.5092
11323SOL     OW35409   2.442   6.794   9.565  0.1748 -0.4267 -0.2804
11323SOL    HW135410   2.361   6.771   9.521 -0.0876  0.4675 -0.2815
11323SOL    HW235411   2.496   6.714   9.560 -1.1657 -1.4429  0.8224
11324SOL     OW35412   1.684   6.034  10.343  0.3440 -0.2827  0.4062
11324SOL    HW135413   1.729   5.953  10.318 -3.0136 -2.1767 -0.0202
11324SOL    HW235414   1.654   6.018  10.432  2.1690  1.8118  1.5043
11325SOL     OW35415   1.560   6.123  11.274  0.1819  0.0824 -0.2220
11325SOL    HW135416   1.616   6.107  11.349  2.4817  0.6302 -1.7252
11325SOL    HW235417   1.535   6.036  11.243  0.2160 -0.1723  0.4496
11326SOL     OW35418   2.806   5.334  10.385  0.3965  0.2242 -0.1603
11326SOL    HW135419   2.832   5.295  10.469  0.6725  0.7930  0.0224
11326SOL    HW235420   2.854   5.284  10.319 -0.6971 -0.9887 -0.0732
11327SOL     OW35421   0.895   6.387  11.334  0.0071 -0.3205 -0.0121
11327SOL    HW135422   0.932   6.349  11.414  1.9459  0.1518 -0.6415
11327SOL    HW235423   0.801   6.393  11.352  0.4398  0.1956  2.4147
11328SOL     OW35424   0.713   5.542   8.227 -0.2838  0.3817 -0.5500
11328SOL    HW135425   0.702   5.632   8.198  0.4051  0.6369 -0.0603
11328SOL    HW235426   0.781   5.506   8.170 -2.6163 -0.8052 -2.7597
11329SOL     OW35427   1.996   5.148  11.753 -0.1941 -0.1176 -0.1633
11329SOL    HW135428   2.001   5.062  11.794 -2.1863  0.8071  2.2770
11329SOL    HW235429   2.048   5.205  11.809 -2.4723  1.0594  0.9041
11330SOL     OW35430   5.199   5.901   9.516 -0.5079 -0.1396 -0.3414
11330SOL    HW135431   5.152   5.983   9.501 -0.1247  0.5310  1.6908
11330SOL    HW235432   5.136   5.832   9.497 -0.7572  0.5968 -2.3591
11331SOL     OW35433   4.163   7.811  10.353 -0.1444  0.4963  0.0539
11331SOL    HW135434   4.167   7.719  10.377  1.0067  0.7429  0.8805
11331SOL    HW235435   4.210   7.816  10.269  1.5906  0.6091  0.9874
11332SOL     OW35436   1.555   6.877   0.912 -0.1666 -0.6225 -0.6554
11332SOL    HW135437   1.643   6.915   0.912  0.7092 -2.4938  0.2667
11332SOL    HW235438   1.508   6.925   0.981  1.4832 -2.2969  1.7915
11333SOL     OW35439   3.025   7.830  11.381 -0.1879  0.4471 -0.4355
11333SOL    HW135440   3.032   7.776  11.302 -0.0149 -1.0036  0.5446
11333SOL    HW235441   2.979   7.775  11.444  1.8216  0.6233  1.2824
11334SOL     OW35442   1.786   7.852   8.881  0.3156  0.1899  0.1250
11334SOL    HW135443   1.871   7.857   8.926 -0.2454 -0.4319  1.3063
11334SOL    HW235444   1.724   7.890   8.943 -0.5872 -1.3303  0.2052
11335SOL     OW35445   2.885   3.695  10.634  0.2810  0.0511 -0.0509
11335SOL    HW135446   2.964   3.678  10.583 -0.9985  2.3049 -3.1320
11335SOL    HW235447   2.886   3.790  10.648 -0.5625 -0.2274  2.3341
11336SOL     OW35448   3.195   4.113  10.286  0.7206 -0.2038  0.0079
11336SOL    HW135449   3.199   4.201  10.251 -0.6558 -0.7459 -1.6336
11336SOL    HW235450   3.286   4.083  10.286  1.3278  1.5008  1.4822
11337SOL     OW35451   1.277   5.969   9.893 -0.2066 -0.4609 -0.4140
11337SOL    HW135452   1.322   5.947   9.811 -2.3439 -0.6144 -1.6192
11337SOL    HW235453   1.208   5.903   9.901  0.2313 -0.7194  1.7919
11338SOL     OW35454   4.249   4.991  12.429 -0.0604 -0.0204  0.0633
11338SOL    HW135455   4.259   4.896  12.423  0.0912  0.0772 -2.2276
11338SOL    HW235456   4.171   5.010  12.377 -1.1867  0.9854  2.0004
11339SOL     OW35457   2.811   6.566  10.281 -0.2526  0.4157 -0.0165
11339SOL    HW135458   2.738   6.504  10.285 -0.7564  1.0864  2.2371
11339SOL    HW235459   2.804   6.604  10.193 -1.4756 -0.8636 -0.5228
11340SOL     OW35460   3.599   5.910  10.559  0.0297  0.3990 -0.5507
11340SOL    HW135461   3.513   5.918  10.600 -0.1357  0.3946 -0.8975
11340SOL    HW235462   3.643   5.841  10.609 -0.3192  0.1157 -0.6353
11341SOL     OW35463   1.151   7.273   8.755  0.8035  0.4064  0.7223
11341SOL    HW135464   1.213   7.233   8.694 -0.0821  0.6036 -0.3210
11341SOL    HW235465   1.154   7.366   8.735 -1.0510  0.2401 -0.5094
11342SOL     OW35466   2.244   5.988  10.971 -0.3488 -0.0275  0.1032
11342SOL    HW135467   2.292   6.054  10.920 -1.1454  0.9629  0.5965
11342SOL    HW235468   2.226   5.918  10.908 -0.5718  0.7857 -0.7689
11343SOL     OW35469   2.981   5.122  10.230 -0.4407  1.1825 -0.1583
11343SOL    HW135470   3.059   5.066  10.227 -0.2919  1.3108  0.9105
11343SOL    HW235471   2.998   5.189  10.163  0.3635  1.2000  0.0460
11344SOL     OW35472   3.436   7.040  10.423  0.1100  0.4524 -0.8754
11344SOL    HW135473   3.502   7.102  10.455  0.1784 -0.1123  0.1180
11344SOL    HW235474   3.387   7.015  10.502  0.5309 -1.2661 -1.1393
11345SOL     OW35475   2.141   7.063  10.788 -0.0710  0.1450  0.4027
11345SOL    HW135476   2.148   7.022  10.874 -1.2477 -0.9973 -0.0160
11345SOL    HW235477   2.062   7.116  10.792  1.6311  2.8503  1.0643
11346SOL     OW35478   1.281   5.794   8.025 -0.2013  0.2046  0.8836
11346SOL    HW135479   1.200   5.745   8.037  0.1523 -0.1636  1.8750
11346SOL    HW235480   1.279   5.861   8.093  1.6081 -1.5728  2.8371
11347SOL     OW35481   1.141   5.597  10.219 -0.1726  0.4085  0.1782
11347SOL    HW135482   1.063   5.640  10.185 -0.4002  0.4755  0.7741
11347SOL    HW235483   1.168   5.537  10.149 -0.9159  0.1762  0.0840
11348SOL     OW35484   1.688   5.220  10.171  0.0137 -0.3682  0.4682
11348SOL    HW135485   1.722   5.169  10.098  1.6693  2.6483 -1.0593
11348SOL    HW235486   1.766   5.248  10.219 -0.5615  2.3147  0.0136
11349SOL     OW35487   3.645   6.762   9.304  0.2985  0.0123 -0.2246
11349SOL    HW135488   3.599   6.735   9.383  1.2270 -0.4932  0.1498
11349SOL    HW235489   3.632   6.689   9.243  0.1595  0.1050 -0.3078
11350SOL     OW35490   2.227   6.276  10.148  0.5838  0.1125  0.4158
11350SOL    HW135491   2.320   6.266  10.124  0.8385  0.4171  1.2470
11350SOL    HW235492   2.189   6.328  10.077  1.1772  0.4617  0.3489
11351SOL     OW35493   3.070   5.660  10.464  0.0911  0.2895 -0.4874
11351SOL    HW135494   3.139   5.666  10.530 -0.7071  0.4935  0.3508
11351SOL    HW235495   3.015   5.737  10.481  0.2097  0.6827 -1.7927
11352SOL     OW35496   4.375   6.814   9.992 -0.1947 -0.2564 -0.2735
11352SOL    HW135497   4.325   6.828   9.911  2.4747  0.5200 -1.9141
11352SOL    HW235498   4.409   6.901  10.014 -0.0104 -0.6585  1.1452
11353SOL     OW35499   2.548   6.011  10.100 -0.0323  0.0395  0.3706
11353SOL    HW135500   2.462   5.985  10.066 -0.3715 -0.4387  1.5573
11353SOL    HW235501   2.599   5.930  10.102  1.0059  0.5560 -1.7709
11354SOL     OW35502   4.120   4.365   9.399 -0.1456 -0.1609 -0.7427
11354SOL    HW135503   4.152   4.283   9.436 -2.7581 -1.1655 -0.5251
11354SOL    HW235504   4.125   4.353   9.304  1.9375  0.5193 -0.7729
11355SOL     OW35505   2.961   0.659  11.335  0.2991 -0.0864  0.4923
11355SOL    HW135506   2.956   0.603  11.413  1.0225 -0.3287  0.3706
11355SOL    HW235507   3.001   0.603  11.268 -2.0232 -0.5299 -0.6400
11356SOL     OW35508   2.342   0.170   9.922  0.2745  0.1272  0.4646
11356SOL    HW135509   2.363   0.084   9.958  0.0226  0.2101  0.8100
11356SOL    HW235510   2.250   0.184   9.945 -0.4452 -0.5852 -1.7262
11357SOL     OW35511   2.810   6.422   8.256 -0.3122  0.1516  0.6620
11357SOL    HW135512   2.875   6.372   8.305 -0.3080  0.9289  1.4737
11357SOL    HW235513   2.846   6.510   8.251 -1.2489  0.5728  1.0401
11358SOL     OW35514   4.482   4.045  10.552 -0.3962  0.1260 -0.1746
11358SOL    HW135515   4.416   4.066  10.618 -0.7860 -1.7819  0.0978
11358SOL    HW235516   4.564   4.079  10.589 -0.6859 -0.4790  1.0937
11359SOL     OW35517   2.251   7.971   9.187 -0.1820 -0.3843 -0.1202
11359SOL    HW135518   2.305   7.965   9.266 -0.3034 -0.1914 -0.0220
11359SOL    HW235519   2.183   8.035   9.209 -0.7552 -1.0032 -0.0651
11360SOL     OW35520   3.498   6.706   9.773 -0.3994  0.4547  0.2355
11360SOL    HW135521   3.408   6.709   9.805 -0.2011  2.0153  0.7340
11360SOL    HW235522   3.527   6.797   9.775  1.3703 -0.0846  0.5719
11361SOL     OW35523   0.566   6.038  11.973 -0.0021  0.2432 -0.6981
11361SOL    HW135524   0.649   6.002  11.942 -0.3122 -0.3545 -0.8471
11361SOL    HW235525   0.506   6.026  11.899 -0.5050 -0.3468 -0.2069
11362SOL     OW35526   2.925   4.461  11.209 -0.2723  0.0077  0.0378
11362SOL    HW135527   2.875   4.527  11.256  1.1297  2.0761 -1.2484
11362SOL    HW235528   2.867   4.432  11.139 -1.2979 -0.9906  1.2535
11363SOL     OW35529   2.072   5.250  12.255  0.0951 -0.4380  0.8623
11363SOL    HW135530   2.007   5.190  12.219 -0.0241  0.2601 -0.1336
11363SOL    HW235531   2.148   5.240  12.197 -0.4002  1.3272 -0.1584
11364SOL     OW35532   1.914   6.145   0.054  0.1697  0.1563  0.4123
11364SOL    HW135533   1.975   6.219   0.050 -0.0797  0.3736  0.5540
11364SOL    HW235534   1.967   6.068   0.035  0.5492  0.3107  0.8233
11365SOL     OW35535   2.437   6.965  12.090 -0.3055 -0.3764 -0.4067
11365SOL    HW135536   2.400   6.983  12.176 -0.3429 -0.2773 -0.4427
11365SOL    HW235537   2.489   7.043  12.070  0.6052 -0.8744  0.0080
11366SOL     OW35538   1.765   5.232   0.204 -0.3600  0.1399 -0.5057
11366SOL    HW135539   1.822   5.259   0.131 -1.6242  0.4034 -1.4367
11366SOL    HW235540   1.748   5.139   0.188 -2.3363  0.6554 -1.8173
11367SOL     OW35541   3.525   6.218  11.953 -0.2347 -0.6115  0.2018
11367SOL    HW135542   3.472   6.154  11.906 -1.0641 -0.8492  1.4155
11367SOL    HW235543   3.487   6.221  12.041 -0.8958  2.3199 -0.0746
11368SOL     OW35544   1.492   5.876   0.565  0.0752  0.6087  0.0920
11368SOL    HW135545   1.498   5.842   0.655  2.5346  1.5082  0.3307
11368SOL    HW235546   1.406   5.845   0.534  0.5048 -2.5130  1.5922
11369SOL     OW35547   1.677   7.820  12.467  0.7067 -0.5984  0.0341
11369SOL    HW135548   1.696   7.912  12.489  0.7482 -0.8978  1.3741
11369SOL    HW235549   1.715   7.808  12.380  0.9975  0.5678 -0.0229
11370SOL     OW35550   3.032   6.543  12.294  0.3779  0.1007 -0.3161
11370SOL    HW135551   3.111   6.571  12.247 -0.1031 -0.0482 -1.2333
11370SOL    HW235552   2.974   6.619  12.291 -0.0189 -0.2131 -0.7842
11371SOL     OW35553   3.688   1.918  12.293  0.3172  0.4348 -0.7410
11371SOL    HW135554   3.747   1.993  12.287 -1.1468  1.6144 -0.9111
11371SOL    HW235555   3.737   1.846  12.253  1.7955  1.2437 -0.4779
11372SOL     OW35556   2.131   7.002  12.043  0.0104 -0.5528  0.5888
11372SOL    HW135557   2.191   7.046  12.102 -0.0207  0.8532 -0.3819
11372SOL    HW235558   2.081   7.073  12.002 -0.9456 -1.5711 -0.0769
11373SOL     OW35559   1.541   7.897  10.784 -0.4175 -0.3393  0.2945
11373SOL    HW135560   1.454   7.937  10.796  0.0348  0.5637  0.6550
11373SOL    HW235561   1.563   7.917  10.693 -1.1207 -1.6934 -0.2091
11374SOL     OW35562   2.078   6.762   1.716  0.0673 -0.6595 -0.4415
11374SOL    HW135563   2.034   6.783   1.798  1.8757 -2.8729  1.2568
11374SOL    HW235564   2.141   6.833   1.704 -0.7526  0.0949 -0.3757
11375SOL     OW35565   3.045   6.511  11.630  0.3335 -0.0492  0.0273
11375SOL    HW135566   3.004   6.570  11.694  0.1404  0.7586 -0.8203
11375SOL    HW235567   3.058   6.429  11.679 -1.0297  0.1071  0.7279
11376SOL     OW35568   0.932   5.438   9.456 -0.3935  0.4340 -0.4852
11376SOL    HW135569   0.866   5.376   9.489  0.4470 -0.1941  0.0403
11376SOL    HW235570   0.929   5.427   9.361 -1.1983  0.5736 -0.4866
11377SOL     OW35571   2.999   0.278  10.514  0.1478  0.0888 -0.0012
11377SOL    HW135572   2.961   0.192  10.501  0.7132 -0.6866  2.8771
11377SOL    HW235573   3.045   0.297  10.431 -1.4128 -1.5464 -1.3216
11378SOL     OW35574   1.035   4.566   0.106  0.1339 -0.2762 -0.4490
11378SOL    HW135575   1.083   4.515   0.171  0.3484  0.1632 -0.2581
11378SOL    HW235576   1.068   4.656   0.117  1.0707 -0.4014 -1.9913
11379SOL     OW35577   2.381   6.651  11.635 -0.1544 -0.4940 -0.0274
11379SOL    HW135578   2.352   6.737  11.605  1.0147 -0.2977 -0.6630
11379SOL    HW235579   2.476   6.651  11.620 -0.2007 -2.0779 -0.4846
11380SOL     OW35580   4.167   7.232  11.854  0.2902 -0.2430 -0.5103
11380SOL    HW135581   4.248   7.277  11.880 -0.4509  1.3060 -0.7854
11380SOL    HW235582   4.173   7.226  11.759  0.9314 -1.8553 -0.3957
11381SOL     OW35583   3.263   5.239   2.055 -0.5315 -0.1536  0.0750
11381SOL    HW135584   3.355   5.265   2.049 -0.4797  0.4255  2.4872
11381SOL    HW235585   3.221   5.286   1.983  0.4411  2.7138  1.2489
11382SOL     OW35586   1.527   6.352  11.796 -0.0661  0.3858  0.5340
11382SOL    HW135587   1.438   6.386  11.807 -0.2970 -0.0856  0.1746
11382SOL    HW235588   1.516   6.274  11.741  0.4290 -0.3860  1.5076
11383SOL     OW35589   3.681   5.321  11.808  0.3178 -0.5443  0.4838
11383SOL    HW135590   3.773   5.318  11.782  0.2119  2.1039 -0.5193
11383SOL    HW235591   3.637   5.366  11.736 -1.5990 -0.8939  1.3722
11384SOL     OW35592   0.881   5.358  11.808 -0.1429  0.1990  0.0423
11384SOL    HW135593   0.843   5.350  11.720  0.4966  1.7455 -0.4036
11384SOL    HW235594   0.940   5.283  11.815 -1.3517 -0.8172 -0.2275
11385SOL     OW35595   3.476   5.551  11.892  0.0285  0.3464 -0.1397
11385SOL    HW135596   3.452   5.602  11.815 -1.7537  0.0886  0.2002
11385SOL    HW235597   3.438   5.464  11.877  2.1050 -0.6051 -0.2258
11386SOL     OW35598   2.851   7.005  10.607  0.1611  0.0253 -0.3780
11386SOL    HW135599   2.906   7.075  10.570  0.0634  0.8365  0.9724
11386SOL    HW235600   2.839   7.029  10.698  0.3704 -1.9210  0.2179
11387SOL     OW35601   2.006   7.086  12.334 -0.2437 -0.9263  0.0503
11387SOL    HW135602   1.966   7.021  12.393 -0.6264  0.8880  1.9241
11387SOL    HW235603   1.932   7.139  12.304  0.1159 -1.0545 -1.1280
11388SOL     OW35604   0.985   4.634   0.720 -0.0237 -0.3969 -0.1965
11388SOL    HW135605   1.024   4.720   0.705 -1.6937  0.3153 -0.6557
11388SOL    HW235606   1.045   4.573   0.675  0.3811  0.6786 -1.1753
11389SOL     OW35607   2.600   0.378  12.334  0.7091  0.1668 -0.0671
11389SOL    HW135608   2.678   0.377  12.278  0.8831  1.9073  0.0918
11389SOL    HW235609   2.619   0.444  12.400 -0.3633 -0.3693  0.8080
11390SOL     OW35610   3.144   0.765   2.651 -0.1938 -0.2492  0.2564
11390SOL    HW135611   3.222   0.814   2.678 -1.4355  0.5861  2.5862
11390SOL    HW235612   3.108   0.815   2.578  0.5085  0.3146  0.2829
11391SOL     OW35613   3.477   5.314  12.164 -0.2163 -0.6087  0.1023
11391SOL    HW135614   3.557   5.273  12.133 -0.7612 -1.3767 -0.3077
11391SOL    HW235615   3.432   5.343  12.085 -0.0987  0.3174  0.3556
11392SOL     OW35616   2.950   5.494  11.596  0.4078  0.4388  0.1907
11392SOL    HW135617   3.027   5.510  11.651  0.8732 -0.2090 -0.2598
11392SOL    HW235618   2.967   5.542  11.515 -0.2444  1.3304  0.5561
11393SOL     OW35619   0.920   6.177   1.403  0.4153  0.1780 -0.1667
11393SOL    HW135620   0.955   6.100   1.359 -0.0888  0.3822 -0.9481
11393SOL    HW235621   0.992   6.240   1.402  0.7854 -0.2256  0.3583
11394SOL     OW35622   2.811   4.118  10.336 -0.6312 -0.1402  0.6313
11394SOL    HW135623   2.840   4.094  10.248  1.6218  0.5021  1.1191
11394SOL    HW235624   2.751   4.048  10.362  1.4600 -2.3287 -0.0668
11395SOL     OW35625   2.553   6.014  10.438  0.2969  0.3263  0.2963
11395SOL    HW135626   2.609   6.091  10.427 -1.0434  1.1380 -1.4413
11395SOL    HW235627   2.474   6.035  10.388 -0.2636 -2.0505  0.0600
11396SOL     OW35628   3.719   5.541   0.307  0.0817 -0.2016 -0.2964
11396SOL    HW135629   3.760   5.618   0.267  1.0127 -0.4862  0.0812
11396SOL    HW235630   3.789   5.501   0.358 -0.4256 -1.2458 -0.4025
11397SOL     OW35631   1.816   6.390   0.445  0.3992 -0.0836 -0.0239
11397SOL    HW135632   1.798   6.482   0.426 -1.4759 -0.4063  0.0319
11397SOL    HW235633   1.758   6.341   0.386 -0.2116 -1.1762  1.4254
11398SOL     OW35634   0.931   7.467   0.683 -0.1005  0.0644 -0.6252
11398SOL    HW135635   0.933   7.503   0.772  0.4669 -1.6701  0.1129
11398SOL    HW235636   0.965   7.537   0.628  1.5382  0.4632  0.8123
11399SOL     OW35637   3.767   5.166  11.512 -0.2142  0.5933 -0.5153
11399SOL    HW135638   3.772   5.148  11.418 -0.3316 -0.7778 -0.2785
11399SOL    HW235639   3.854   5.145  11.546 -0.2438  0.8517 -0.2730
11400SOL     OW35640   1.269   5.817   8.734  0.5924 -0.0883  0.4819
11400SOL    HW135641   1.307   5.866   8.807  1.2787 -1.1589  0.8575
11400SOL    HW235642   1.178   5.847   8.730  0.9527  1.1080  0.7888
11401SOL     OW35643   2.822   6.797   0.304 -0.0202 -0.3903  0.3295
11401SOL    HW135644   2.915   6.796   0.330 -0.0260 -0.7789  0.3335
11401SOL    HW235645   2.824   6.822   0.211  0.0661 -0.0554  0.4192
11402SOL     OW35646   2.144   7.022  11.652  0.3813  0.4918  0.1160
11402SOL    HW135647   2.181   7.110  11.659  2.5260 -0.4294  1.2127
11402SOL    HW235648   2.050   7.036  11.645  0.6244  2.8468  0.7549
11403SOL     OW35649   3.066   0.535  11.100 -0.4276 -0.1573 -0.4769
11403SOL    HW135650   3.002   0.577  11.043 -0.3368 -0.4799 -0.8176
11403SOL    HW235651   3.129   0.495  11.041  0.4502  0.6978 -0.1409
11404SOL     OW35652   3.651   5.486  11.575  0.5720  0.4999  0.1533
11404SOL    HW135653   3.689   5.453  11.494  0.1090 -1.1423  0.5589
11404SOL    HW235654   3.717   5.547  11.610  1.4202  0.0974 -0.7077
11405SOL     OW35655   0.228   6.471   0.673 -0.2406  0.5231 -0.0278
11405SOL    HW135656   0.322   6.487   0.669 -0.2229  0.2086 -0.9621
11405SOL    HW235657   0.219   6.377   0.685 -0.4441  0.3611 -1.3052
11406SOL     OW35658   3.152   0.893   0.778  0.0773  0.0457  0.0264
11406SOL    HW135659   3.118   0.805   0.763 -0.0358 -0.0485  0.7778
11406SOL    HW235660   3.122   0.916   0.866 -0.7489  1.2393 -0.5390
11407SOL     OW35661   2.300   5.018  11.053 -0.3818  0.3973 -0.2175
11407SOL    HW135662   2.332   5.063  11.131 -0.8415  0.0227  0.1993
11407SOL    HW235663   2.205   5.029  11.057 -0.4326  0.0817 -0.5390
11408SOL     OW35664   2.292   6.086  10.334  0.2673  0.5703 -0.5163
11408SOL    HW135665   2.241   6.155  10.292 -0.1214  2.1061  2.2196
11408SOL    HW235666   2.267   6.005  10.288 -3.3232  1.4801 -0.4435
11409SOL     OW35667   3.059   7.281   0.645  0.2728  0.2527  0.2807
11409SOL    HW135668   3.027   7.330   0.720 -0.1234 -0.0271  0.2944
11409SOL    HW235669   3.153   7.273   0.660  0.2082  0.2746  0.6994
11410SOL     OW35670   1.436   7.605  10.790 -0.1514 -0.3403 -0.2886
11410SOL    HW135671   1.394   7.665  10.728 -0.5941 -0.0917  0.2442
11410SOL    HW235672   1.369   7.540  10.809 -0.6496  0.5727  1.2751
11411SOL     OW35673   2.366   5.504  12.031  0.1811 -0.8636  0.1082
11411SOL    HW135674   2.377   5.588  11.987  0.8465 -0.8208  0.3302
11411SOL    HW235675   2.387   5.523  12.123  0.8564 -1.3672  0.0711
11412SOL     OW35676   2.604   7.554   0.043 -0.0874  0.2422  0.4766
11412SOL    HW135677   2.642   7.483   0.096 -0.4310 -0.3522 -0.0552
11412SOL    HW235678   2.613   7.632   0.097  0.5868 -0.1490  0.9496
11413SOL     OW35679   2.092   5.168  10.904  0.1148 -0.4967 -0.0654
11413SOL    HW135680   2.082   5.076  10.880  0.7500 -0.2486 -1.3788
11413SOL    HW235681   2.179   5.192  10.872  0.5697  0.1947  1.5658
11414SOL     OW35682   3.488   4.165  12.424 -0.4701 -0.1855  0.2987
11414SOL    HW135683   3.581   4.186  12.418 -0.6675  1.7140  2.5324
11414SOL    HW235684   3.445   4.222  12.361 -0.3640  1.3583  1.5664
11415SOL     OW35685   1.196   7.700  11.761 -0.0812  0.1825  0.5795
11415SOL    HW135686   1.282   7.657  11.763  0.3795  1.0378  0.1311
11415SOL    HW235687   1.216   7.790  11.735 -0.7992  1.1805  3.1772
11416SOL     OW35688   3.850   5.502   0.902 -0.6719  0.3275 -0.0208
11416SOL    HW135689   3.913   5.499   0.830  0.4235  0.9445  0.8741
11416SOL    HW235690   3.810   5.415   0.902 -1.4540  0.6271 -1.9909
11417SOL     OW35691   2.985   7.366  11.775 -0.3913 -0.3975 -0.1574
11417SOL    HW135692   3.012   7.326  11.858 -2.5380 -0.5248  0.5503
11417SOL    HW235693   2.933   7.442  11.801 -1.7179 -0.8543 -1.3383
11418SOL     OW35694   1.538   3.835  11.091  0.5269 -0.0235 -0.2599
11418SOL    HW135695   1.455   3.850  11.046  1.5348  0.7790 -1.9357
11418SOL    HW235696   1.574   3.756  11.050  3.0746  2.5719 -3.5639
11419SOL     OW35697   0.428   6.304   1.584  0.3347  0.2190 -0.1157
11419SOL    HW135698   0.521   6.310   1.607  0.5978 -0.8739 -0.8224
11419SOL    HW235699   0.428   6.273   1.494 -0.7181 -1.9738  0.5834
11420SOL     OW35700   3.810   4.376   0.318  0.0282 -0.0689  0.5173
11420SOL    HW135701   3.748   4.322   0.367 -0.1979  2.0676  2.7567
11420SOL    HW235702   3.889   4.323   0.314 -0.4763 -0.9749  1.8087
11421SOL     OW35703   4.067   4.941  11.509 -0.0671  0.6505  0.2718
11421SOL    HW135704   4.084   5.033  11.491  0.3352  0.6896  0.8105
11421SOL    HW235705   4.005   4.941  11.582  0.4847  0.5004  0.7479
11422SOL     OW35706   1.067   0.437  11.787  0.2695  0.3729 -0.1740
11422SOL    HW135707   1.078   0.519  11.740 -1.3012 -0.1845 -1.5901
11422SOL    HW235708   1.138   0.381  11.754  1.5725  1.2183  1.0657
11423SOL     OW35709   2.595   6.847   9.976 -0.2986 -0.1853 -0.1716
11423SOL    HW135710   2.552   6.911   9.919 -1.1706 -0.1122  0.5619
11423SOL    HW235711   2.549   6.853  10.059  0.0169 -1.3212  0.1074
11424SOL     OW35712   1.111   6.151  11.901  0.3173  0.0663  0.7096
11424SOL    HW135713   1.057   6.222  11.935  1.3988  0.9085  0.6911
11424SOL    HW235714   1.155   6.115  11.978  1.1071  0.5669  0.5019
11425SOL     OW35715   2.542   0.628  11.547  0.1199 -0.2653  0.2778
11425SOL    HW135716   2.604   0.592  11.611  1.0104  2.3303  1.0102
11425SOL    HW235717   2.513   0.552  11.496  0.3198 -2.2710  2.9288
11426SOL     OW35718   3.154   6.254  11.776  0.1712 -0.2433 -0.5456
11426SOL    HW135719   3.225   6.190  11.770  1.9032  1.5324  0.1434
11426SOL    HW235720   3.075   6.202  11.760  1.5549 -2.3537 -1.0474
11427SOL     OW35721   1.942   6.695  10.823  0.3044 -0.4638  0.1351
11427SOL    HW135722   1.887   6.707  10.900 -0.5296 -0.6694 -0.4064
11427SOL    HW235723   1.881   6.704  10.749  1.6228  3.1762 -0.7071
11428SOL     OW35724   3.970   6.570   1.334 -0.3844 -0.4525 -0.5387
11428SOL    HW135725   4.007   6.657   1.345 -0.5155 -0.4103 -0.4136
11428SOL    HW235726   3.875   6.584   1.342 -0.3760 -0.6821  0.0236
11429SOL     OW35727   4.989   7.509  11.258  0.0277  0.0995  0.4759
11429SOL    HW135728   4.898   7.482  11.263  0.3040 -0.6991  1.8257
11429SOL    HW235729   5.024   7.464  11.181 -1.2859  2.3724 -1.5665
11430SOL     OW35730   1.881   1.328   1.052 -0.1967  0.0224  0.5183
11430SOL    HW135731   1.937   1.376   1.114 -0.7919  0.3160  0.8342
11430SOL    HW235732   1.857   1.248   1.098  1.5853 -1.0838 -0.3663
11431SOL     OW35733   1.112   5.270  11.080 -0.4119 -0.3934  0.3752
11431SOL    HW135734   1.132   5.363  11.073 -0.4193 -0.4213 -0.0357
11431SOL    HW235735   1.182   5.234  11.134  0.1185 -0.3146 -0.2486
11432SOL     OW35736   2.953   5.423  11.946  0.3639 -0.1108  0.4935
11432SOL    HW135737   2.994   5.356  11.892  0.7123 -0.3510  1.0499
11432SOL    HW235738   2.864   5.392  11.959  0.2051  0.0659 -0.1346
11433SOL     OW35739   2.010   6.601  11.766 -0.0410 -0.1917 -0.0900
11433SOL    HW135740   2.056   6.685  11.762 -0.0371 -0.1624  0.5291
11433SOL    HW235741   2.005   6.580  11.859  0.1377 -0.9842 -0.2540
11434SOL     OW35742   3.421   5.675  11.657 -0.5652  0.0059  0.2387
11434SOL    HW135743   3.381   5.758  11.631  0.7157  0.7951  0.7072
11434SOL    HW235744   3.482   5.655  11.586  1.1270  0.9049  1.3623
11435SOL     OW35745   3.624   0.346  11.461 -0.1832 -0.7833  0.2045
11435SOL    HW135746   3.570   0.276  11.500 -1.6966  0.1195 -0.1908
11435SOL    HW235747   3.561   0.415  11.440  1.0330 -0.0413 -1.1064
11436SOL     OW35748   2.828   5.956   0.152  0.4052 -0.7109 -0.0058
11436SOL    HW135749   2.763   5.905   0.103 -0.7096  0.8888 -0.2890
11436SOL    HW235750   2.852   6.027   0.092 -0.0537  0.5832  1.2773
11437SOL     OW35751   3.153   6.646  10.339 -0.3314 -0.3797 -0.4797
11437SOL    HW135752   3.144   6.637  10.245 -0.5976  2.1855 -0.7608
11437SOL    HW235753   3.093   6.717  10.363  1.5672  0.7697  1.1904
11438SOL     OW35754   2.252   0.732   0.744  0.1841 -0.2214 -0.1634
11438SOL    HW135755   2.241   0.793   0.670  0.4562  0.8528  0.6542
11438SOL    HW235756   2.292   0.655   0.705 -0.0298  0.1729 -1.2121
11439SOL     OW35757   1.183   6.735   0.104 -0.3297  0.6966  0.8108
11439SOL    HW135758   1.125   6.757   0.031 -0.5872 -0.6988  0.5689
11439SOL    HW235759   1.230   6.817   0.122 -0.7230  1.2457 -0.4859
11440SOL     OW35760   1.887   5.339   0.441 -0.1181 -0.0227 -0.4752
11440SOL    HW135761   1.814   5.292   0.400 -0.0394  1.0699 -1.9574
11440SOL    HW235762   1.897   5.298   0.527 -0.0205 -2.7105 -1.6711
11441SOL     OW35763   3.547   5.826  11.345  0.0130 -0.0387  0.3001
11441SOL    HW135764   3.504   5.840  11.261 -0.5601  2.2212  0.8975
11441SOL    HW235765   3.502   5.885  11.405 -0.4141 -2.4677  2.5259
11442SOL     OW35766   3.097   4.447  10.620  0.4828  0.3501  0.1917
11442SOL    HW135767   3.159   4.463  10.548  0.6848 -2.9124 -0.5223
11442SOL    HW235768   3.038   4.522  10.617  0.5673  0.4705 -3.3583
11443SOL     OW35769   2.080   5.701  11.865 -0.4322 -0.5644 -0.0278
11443SOL    HW135770   2.017   5.766  11.833  1.0708  0.7938 -0.3323
11443SOL    HW235771   2.165   5.739  11.846  0.4989 -2.0435  1.0155
11444SOL     OW35772   2.993   6.157  10.867 -0.1913  0.0999 -0.4315
11444SOL    HW135773   2.916   6.203  10.834 -1.1129 -0.7697  0.4269
11444SOL    HW235774   3.021   6.208  10.943 -1.0570 -0.6036  0.3675
11445SOL     OW35775   1.770   5.101   9.949 -0.5985 -0.0997 -0.1292
11445SOL    HW135776   1.857   5.123   9.916 -0.1214  0.2222  1.2910
11445SOL    HW235777   1.759   5.008   9.929 -0.1434 -0.0183 -0.7684
11446SOL     OW35778   2.321   4.667  11.005 -0.2476 -0.2107  0.1089
11446SOL    HW135779   2.280   4.701  11.085  0.4382  0.5225  0.1573
11446SOL    HW235780   2.414   4.666  11.025 -0.1314 -0.7112 -0.4366
11447SOL     OW35781   2.387   7.826   0.367 -0.3926  0.8952 -0.0916
11447SOL    HW135782   2.426   7.873   0.441  0.8359  0.0125 -0.1427
11447SOL    HW235783   2.408   7.881   0.291 -0.1661  0.9515  0.0109
11448SOL     OW35784   3.161   4.216   9.949 -0.2635  0.4000 -0.6910
11448SOL    HW135785   3.223   4.144   9.958 -0.2205  0.2235 -2.1542
11448SOL    HW235786   3.190   4.281  10.013 -0.5141 -0.9960  0.9122
11449SOL     OW35787   3.113   4.191  11.422 -0.5034 -0.1956  0.1275
11449SOL    HW135788   3.153   4.273  11.452 -0.9439 -0.3491  1.1807
11449SOL    HW235789   3.029   4.218  11.385  0.6498  0.1730 -2.4367
11450SOL     OW35790   2.375   4.848   9.911  0.0850 -0.0532  0.1642
11450SOL    HW135791   2.326   4.847   9.828  0.6378 -0.2628 -0.1633
11450SOL    HW235792   2.359   4.762   9.949 -0.7280  0.2828  0.6159
11451SOL     OW35793   2.029   5.694  12.230 -0.1872 -0.3266 -0.2680
11451SOL    HW135794   2.073   5.633  12.289  0.3048  0.0477 -0.2462
11451SOL    HW235795   2.000   5.639  12.156 -0.4467 -0.7224  0.1245
11452SOL     OW35796   2.022   7.219  11.941  0.0383 -0.2633  0.1682
11452SOL    HW135797   1.957   7.261  11.885  1.1338  1.3289  0.0227
11452SOL    HW235798   2.076   7.291  11.973  1.2856 -1.4642  0.8625
11453SOL     OW35799   3.972   5.495   0.646 -0.1541  0.1590 -0.1934
11453SOL    HW135800   3.940   5.585   0.632 -2.4854 -0.4547  0.6925
11453SOL    HW235801   3.934   5.445   0.574 -1.2830 -0.6141  0.9101
11454SOL     OW35802   1.585   5.461   0.190  0.0386 -0.7245 -0.3867
11454SOL    HW135803   1.601   5.513   0.269 -0.2549  0.9523 -1.3790
11454SOL    HW235804   1.662   5.405   0.183  0.0514 -0.9475  1.1094
11455SOL     OW35805   3.016   0.279  12.155  0.0588 -0.3536  0.4583
11455SOL    HW135806   3.108   0.277  12.182  0.1622 -1.9895  0.1410
11455SOL    HW235807   2.972   0.220  12.217 -0.6035 -0.3036  0.0513
11456SOL     OW35808   1.673   6.712   0.510  0.7095  0.1119 -0.0388
11456SOL    HW135809   1.667   6.793   0.562  1.9427 -0.3485  0.9038
11456SOL    HW235810   1.677   6.742   0.419 -0.5045  1.0102  0.1840
11457SOL     OW35811   2.533   4.200   0.115  0.3545  0.3910 -0.5632
11457SOL    HW135812   2.443   4.232   0.124 -0.5277 -2.4254  2.2648
11457SOL    HW235813   2.584   4.259   0.171  0.3524  1.9257 -2.0793
11458SOL     OW35814   3.398   5.645  11.024 -0.8583  0.2756  0.1296
11458SOL    HW135815   3.430   5.566  11.067  0.8263  0.9287  0.1412
11458SOL    HW235816   3.475   5.701  11.015 -1.5437  0.9994 -1.9372
11459SOL     OW35817   3.663   5.158  10.781  0.1616  0.2126  0.3083
11459SOL    HW135818   3.623   5.109  10.853 -0.3028 -0.5947 -0.4819
11459SOL    HW235819   3.743   5.195  10.819 -0.4747  0.4691  1.4540
11460SOL     OW35820   3.978   6.317  12.102  0.2136  0.6143 -0.6883
11460SOL    HW135821   3.906   6.348  12.048 -2.2361 -1.8243  0.9331
11460SOL    HW235822   4.004   6.234  12.064  0.9088  0.5651 -0.1453
11461SOL     OW35823   3.033   5.530   0.352 -0.0878  0.3869  0.3983
11461SOL    HW135824   2.951   5.577   0.369  0.2723  1.0266  0.4185
11461SOL    HW235825   3.036   5.462   0.419 -0.8392  0.0434  0.0907
11462SOL     OW35826   1.652   4.855  10.238  0.3076  0.2804  0.2220
11462SOL    HW135827   1.587   4.923  10.255  1.7859  1.5987  0.9680
11462SOL    HW235828   1.671   4.862  10.144 -1.1692 -0.6688 -0.1704
11463SOL     OW35829   2.522   5.339  11.288 -0.0512 -0.2908 -0.1788
11463SOL    HW135830   2.513   5.388  11.370  1.1660 -1.4013  0.6694
11463SOL    HW235831   2.444   5.283  11.286  0.5125 -1.1688  0.9108
11464SOL     OW35832   2.418   7.070   1.061  0.1693 -0.3079  1.1661
11464SOL    HW135833   2.358   7.010   1.017  0.8674  0.0022 -0.2926
11464SOL    HW235834   2.418   7.042   1.153  0.3810 -2.4816  0.5683
11465SOL     OW35835   3.085   5.869  11.463 -1.0898  0.1221 -0.3304
11465SOL    HW135836   3.058   5.846  11.552 -3.3472  0.7453 -0.7988
11465SOL    HW235837   3.085   5.785  11.416  2.3794 -0.6120  0.6826
11466SOL     OW35838   3.786   7.705   0.640 -0.5945  0.0305  0.1697
11466SOL    HW135839   3.856   7.760   0.605 -0.2923  0.9014  2.0112
11466SOL    HW235840   3.706   7.738   0.598  0.0314 -0.8615 -1.8108
11467SOL     OW35841   3.979   0.019  11.396  0.0215 -0.0194  0.7965
11467SOL    HW135842   3.988   0.045  11.488  0.2585  0.6347  0.5918
11467SOL    HW235843   3.903   0.067  11.364  0.2693  0.1793  0.5028
11468SOL     OW35844   1.881   7.528  11.747  0.2986 -0.8444 -0.4804
11468SOL    HW135845   1.917   7.452  11.701 -1.1320 -0.3907 -2.5215
11468SOL    HW235846   1.820   7.491  11.811  0.6302 -1.4562 -0.5138
11469SOL     OW35847   4.000   6.056   9.357 -0.3454  0.3497  0.6981
11469SOL    HW135848   3.979   5.975   9.310  1.4517  0.7660 -0.9491
11469SOL    HW235849   3.917   6.103   9.361 -0.8115 -0.2435 -1.0377
11470SOL     OW35850   4.010   6.517   7.957 -0.1449  0.2624  0.2714
11470SOL    HW135851   4.000   6.585   7.890 -0.7822 -0.5076 -0.4455
11470SOL    HW235852   4.073   6.455   7.919 -0.8103 -0.3830  0.2025
11471SOL     OW35853   3.138   6.881   8.673  0.6083  0.1857  0.6900
11471SOL    HW135854   3.154   6.904   8.765 -1.1820  1.2549  0.7858
11471SOL    HW235855   3.042   6.884   8.664  0.7273 -0.3285 -1.1091
11472SOL     OW35856   1.040   7.680  10.396 -0.4338 -0.0615  0.3403
11472SOL    HW135857   1.103   7.610  10.411 -0.6344 -0.0337  1.3680
11472SOL    HW235858   0.963   7.635  10.361 -0.6961 -0.4138  1.3449
11473SOL     OW35859   3.590   5.737   0.586 -0.3803  0.4408  0.8208
11473SOL    HW135860   3.503   5.774   0.602  0.3977  2.1908  1.2904
11473SOL    HW235861   3.628   5.793   0.518 -0.4075 -1.6537 -0.9965
11474SOL     OW35862   2.830   5.329  11.009 -0.3426 -0.1213 -0.3002
11474SOL    HW135863   2.894   5.385  11.052 -0.5064  0.4097 -0.7435
11474SOL    HW235864   2.882   5.269  10.955 -0.1440 -0.7090  0.5323
11475SOL     OW35865   3.066   5.630  11.796 -0.4166 -0.4437 -0.3028
11475SOL    HW135866   3.052   5.725  11.793  0.3121 -0.3529 -0.9548
11475SOL    HW235867   3.000   5.599  11.858 -1.8256  0.2724 -1.3806
11476SOL     OW35868   3.360   0.201  11.939  0.1868  0.9604  0.0660
11476SOL    HW135869   3.274   0.224  11.904 -0.8172 -0.3328  1.5210
11476SOL    HW235870   3.349   0.210  12.034  0.7244 -2.0008  0.4985
11477SOL     OW35871   2.518   6.818   0.864 -0.2383  0.5717  0.7805
11477SOL    HW135872   2.435   6.801   0.908  0.2333 -1.9069  0.8099
11477SOL    HW235873   2.496   6.821   0.771 -0.4225  0.3438  0.8168
11478SOL     OW35874   3.527   6.341  10.623  0.6096 -0.0581  0.2965
11478SOL    HW135875   3.458   6.407  10.610  1.4466  0.5986 -1.1228
11478SOL    HW235876   3.608   6.386  10.598  1.2800 -1.4327 -0.1142
11479SOL     OW35877   2.605   7.707  10.156 -0.2828  0.2601 -0.3359
11479SOL    HW135878   2.700   7.719  10.167 -0.3142  0.4345 -0.2436
11479SOL    HW235879   2.578   7.782  10.103 -0.6339  1.1185  1.0100
11480SOL     OW35880   2.573   0.179  12.009 -0.0094 -0.6758 -0.6399
11480SOL    HW135881   2.633   0.179  11.934 -0.2009  2.2026 -0.9109
11480SOL    HW235882   2.618   0.127  12.076  1.2161 -1.3974 -1.9730
11481SOL     OW35883   3.286   5.967   0.290 -0.5593 -0.0085  0.3594
11481SOL    HW135884   3.380   5.958   0.301 -0.6447 -0.6434  0.6323
11481SOL    HW235885   3.262   6.041   0.347 -0.5786 -1.4422  2.3259
11482SOL     OW35886   2.264   6.514   0.913 -0.0738  0.1443  0.4182
11482SOL    HW135887   2.294   6.494   1.002  1.7692 -0.6281 -0.3382
11482SOL    HW235888   2.245   6.608   0.915 -0.3851  0.0730  1.6977
11483SOL     OW35889   3.310   5.710   0.335 -0.2884 -0.4794  0.3199
11483SOL    HW135890   3.284   5.802   0.343 -0.9930 -0.6614  0.1690
11483SOL    HW235891   3.228   5.661   0.338 -0.3306 -0.8903 -3.0577
11484SOL     OW35892   2.480   7.088   0.505 -0.0620 -0.1036  0.0442
11484SOL    HW135893   2.439   7.065   0.589  1.6684 -3.2108  0.1762
11484SOL    HW235894   2.538   7.161   0.527  0.1062 -0.6319  1.5234
11485SOL     OW35895   1.861   6.376  11.354 -0.1194  0.1735  0.4187
11485SOL    HW135896   1.903   6.460  11.335 -1.1243  0.4950 -0.4607
11485SOL    HW235897   1.771   6.400  11.378 -0.3082 -0.6288  0.5299
11486SOL     OW35898   2.507   6.101  12.232 -0.0737 -0.2609  1.3050
11486SOL    HW135899   2.488   6.113  12.139  1.9662 -1.6513  0.6698
11486SOL    HW235900   2.448   6.164  12.276 -2.0176 -0.4837 -0.7907
11487SOL     OW35901   3.390   7.111   0.055 -0.3586  0.0610 -0.1574
11487SOL    HW135902   3.355   7.109  -0.034  0.4602  1.6749 -0.5538
11487SOL    HW235903   3.472   7.161   0.048 -0.0025 -0.2488  1.4026
11488SOL     OW35904   3.480   6.614   0.153  0.1690  0.0910 -0.1191
11488SOL    HW135905   3.408   6.601   0.214  0.4658  0.6630  0.3599
11488SOL    HW235906   3.476   6.707   0.130  0.4830  0.0318 -0.4298
11489SOL     OW35907   4.339   5.653  11.915  0.1068 -0.8564  0.0097
11489SOL    HW135908   4.273   5.603  11.962  0.5940 -2.5586 -1.0339
11489SOL    HW235909   4.400   5.681  11.982 -0.9948 -0.2963  0.8221
11490SOL     OW35910   2.677   4.566   9.962 -0.3973 -0.2135  0.0127
11490SOL    HW135911   2.753   4.524   9.921  0.7654  0.3704  1.4660
11490SOL    HW235912   2.672   4.652   9.919  2.2416  1.3580  2.4343
11491SOL     OW35913   2.048   5.216  11.358  0.4754  0.0932  0.0804
11491SOL    HW135914   1.984   5.179  11.419  1.6703 -0.3211  1.1487
11491SOL    HW235915   2.027   5.309  11.353 -0.7706 -0.1977 -0.3341
11492SOL     OW35916   4.090   5.736   0.225  0.0745  0.0263  0.8534
11492SOL    HW135917   4.156   5.775   0.282  0.8807  2.7754 -1.7145
11492SOL    HW235918   4.138   5.673   0.172 -0.2125 -0.7711  1.5003
11493SOL     OW35919   1.162   0.695  10.920 -0.2481 -0.3466  0.3190
11493SOL    HW135920   1.200   0.754  10.986 -0.6682  0.5069 -0.1942
11493SOL    HW235921   1.121   0.753  10.856  0.9089 -1.1159 -1.1811
11494SOL     OW35922   2.976   0.438   0.096  0.0104 -0.0368  0.2013
11494SOL    HW135923   3.010   0.350   0.108 -1.5048 -0.4323  2.3236
11494SOL    HW235924   3.053   0.493   0.081  0.9972 -1.6538 -0.8869
11495SOL     OW35925   2.487   7.215   0.234 -0.7014  0.4780 -0.5970
11495SOL    HW135926   2.556   7.188   0.173  0.7811  1.7743  0.4242
11495SOL    HW235927   2.503   7.162   0.313 -0.2829  1.3986 -0.0425
11496SOL     OW35928   2.535   5.769   0.399 -0.5635  0.2513  0.0989
11496SOL    HW135929   2.559   5.816   0.319 -0.6774  2.9136  1.5255
11496SOL    HW235930   2.522   5.678   0.370  0.8745  0.7904 -2.5999
11497SOL     OW35931   2.540   0.986   0.292  0.2952  0.2727 -0.0514
11497SOL    HW135932   2.483   0.986   0.369 -0.5268 -0.2200 -0.6409
11497SOL    HW235933   2.622   1.023   0.323 -0.2830  0.8242  0.8714
11498SOL     OW35934   4.356   3.547  11.716  0.3188 -0.4418  0.5215
11498SOL    HW135935   4.406   3.515  11.642 -0.1379  0.1852 -0.0695
11498SOL    HW235936   4.292   3.608  11.678 -0.6329 -0.9233  1.2956
11499SOL     OW35937   1.850   5.969   9.662 -0.3425  0.3319 -0.5845
11499SOL    HW135938   1.803   5.913   9.724 -0.1553 -0.3652 -1.0664
11499SOL    HW235939   1.869   6.049   9.712 -1.9731  0.6144 -0.3684
11500SOL     OW35940   2.139   6.308  11.934 -0.2833  0.3475  0.3523
11500SOL    HW135941   2.079   6.331  12.004  1.8038  1.1363  1.9859
11500SOL    HW235942   2.169   6.219  11.955  1.0704  0.9389  1.0699
11501SOL     OW35943   1.086   7.083   0.099  0.1499  0.2822  0.2550
11501SOL    HW135944   1.117   7.066   0.010  1.0896  0.6673  0.4983
11501SOL    HW235945   1.148   7.037   0.155 -0.7525 -0.4245  0.7098
11502SOL     OW35946   3.274   5.946  12.097 -0.4498  0.1334 -0.5777
11502SOL    HW135947   3.276   5.935  12.002 -2.3359 -0.1507 -0.6369
11502SOL    HW235948   3.295   5.860  12.132 -1.3541 -0.1931 -0.7975
11503SOL     OW35949   3.208   7.583  11.603 -0.8955 -1.0058 -0.1362
11503SOL    HW135950   3.249   7.669  11.592 -0.2837 -1.3689 -0.8195
11503SOL    HW235951   3.192   7.575  11.697 -0.9675 -0.1443 -0.0715
11504SOL     OW35952   1.449   5.420  10.534  0.1787  0.1095 -0.1604
11504SOL    HW135953   1.431   5.370  10.454  0.6372 -0.0331 -0.1759
11504SOL    HW235954   1.544   5.414  10.545  0.1542  0.4069  0.2140
11505SOL     OW35955   1.026   5.569  10.471  0.2513  0.7306 -0.1706
11505SOL    HW135956   0.952   5.626  10.451 -0.8368 -0.3356  0.6713
11505SOL    HW235957   1.059   5.543  10.385 -0.4428  1.1022 -0.5603
11506SOL     OW35958   3.674   5.316   0.709  0.1177  0.2954  0.0020
11506SOL    HW135959   3.580   5.319   0.728  0.2311  1.2221  0.4934
11506SOL    HW235960   3.681   5.334   0.616 -0.1653  0.8421  0.0817
11507SOL     OW35961   2.719   7.829   0.154 -0.2066 -0.1077  0.3218
11507SOL    HW135962   2.688   7.883   0.081  1.8766  0.8491  0.0708
11507SOL    HW235963   2.814   7.841   0.153 -0.0908 -0.3881  2.9735
11508SOL     OW35964   1.689   7.545  10.813 -0.6478 -0.0350 -0.0201
11508SOL    HW135965   1.708   7.588  10.896  2.0281 -1.4399  0.1949
11508SOL    HW235966   1.595   7.559  10.800 -1.2373  0.0216  3.3478
11509SOL     OW35967   1.533   7.218   2.120 -0.3671  0.2096 -0.0934
11509SOL    HW135968   1.489   7.300   2.142  0.9206  0.6225  1.0941
11509SOL    HW235969   1.467   7.151   2.134 -1.1462  0.9483 -0.1113
11510SOL     OW35970   0.626   0.404   1.015  0.5729  0.0551 -0.0013
11510SOL    HW135971   0.531   0.409   1.004  0.1401  3.8980  3.0532
11510SOL    HW235972   0.662   0.430   0.930 -1.1900  0.1698 -0.7431
11511SOL     OW35973   1.692   7.894   1.964  0.7060 -0.2210 -0.1550
11511SOL    HW135974   1.619   7.832   1.963  0.6056 -0.4379  3.7661
11511SOL    HW235975   1.754   7.859   1.900 -1.1942 -1.8864 -1.2038
11512SOL     OW35976   4.444   7.625   0.805  0.7156  0.3065  0.0584
11512SOL    HW135977   4.405   7.590   0.725 -0.0648  2.5589 -0.6282
11512SOL    HW235978   4.430   7.556   0.870 -1.1539 -0.4784 -1.0777
11513SOL     OW35979   0.835   6.522   0.646  0.0208 -0.1418 -0.6529
11513SOL    HW135980   0.823   6.552   0.736  0.9016  0.7553 -0.8071
11513SOL    HW235981   0.749   6.532   0.606 -0.4114 -0.6871  0.1265
11514SOL     OW35982   0.455   7.275   0.656  0.5979  0.1957  0.1450
11514SOL    HW135983   0.450   7.317   0.570 -0.3443  1.0856  0.6198
11514SOL    HW235984   0.505   7.337   0.710 -0.8429  0.7816  0.8629
11515SOL     OW35985   2.524   7.422   1.387  0.2579 -0.4960  0.0261
11515SOL    HW135986   2.542   7.333   1.417 -0.7286 -0.7088  0.0186
11515SOL    HW235987   2.487   7.465   1.464  0.0633 -0.3079 -0.1725
11516SOL     OW35988   0.890   6.260   2.381 -0.1374  0.9364 -0.4045
11516SOL    HW135989   0.943   6.318   2.436 -1.3077  1.5604  0.0854
11516SOL    HW235990   0.856   6.194   2.442 -0.7837  1.1611 -0.5150
11517SOL     OW35991   3.018   6.442   1.696  0.2219  0.1275 -0.3096
11517SOL    HW135992   3.073   6.453   1.618 -0.2943 -0.4069 -0.7651
11517SOL    HW235993   3.069   6.480   1.767  0.0889  1.9922 -1.1434
11518SOL     OW35994   4.761   0.341   2.110  0.1259 -0.2479  0.1201
11518SOL    HW135995   4.764   0.431   2.141 -1.2315 -0.5555  1.2390
11518SOL    HW235996   4.686   0.302   2.155  0.8284 -2.0172 -0.1422
11519SOL     OW35997   3.829   7.949   2.904  0.2437 -0.3567  0.0169
11519SOL    HW135998   3.877   7.893   2.965 -0.1274 -0.3190  0.3553
11519SOL    HW235999   3.816   7.895   2.826 -0.5351 -0.9285  0.5209
11520SOL     OW36000   3.030   7.198   1.353  0.5278 -0.5251 -0.1841
11520SOL    HW136001   3.110   7.223   1.400 -1.2062  0.7164  2.3794
11520SOL    HW236002   3.009   7.274   1.299  0.9623 -0.7728 -0.7044
11521SOL     OW36003   1.101   7.029   1.226 -0.7048  0.7330 -0.7662
11521SOL    HW136004   1.195   7.021   1.243 -0.5464  1.4911 -1.2617
11521SOL    HW236005   1.066   7.077   1.301 -0.7545  0.2170 -0.4487
11522SOL     OW36006   3.235   0.075   0.351  0.0131  0.0814  0.6627
11522SOL    HW136007   3.213   0.115   0.435 -0.0275 -0.0037  0.6931
11522SOL    HW236008   3.162   0.015   0.334  0.0582  0.0445  0.6019
11523SOL     OW36009   1.454   0.002   1.219  0.1746  0.6772  0.1204
11523SOL    HW136010   1.414  -0.061   1.158 -4.0610  1.5452  1.6873
11523SOL    HW236011   1.496  -0.053   1.285  1.0985 -0.3244 -1.2371
11524SOL     OW36012   1.817   7.632   1.131  0.0341 -0.5290  0.0232
11524SOL    HW136013   1.824   7.696   1.059  0.3576  0.1510  0.6407
11524SOL    HW236014   1.907   7.604   1.146 -0.1879 -1.7663 -0.7768
11525SOL     OW36015   3.771   0.810   0.153 -0.0003 -0.4097  0.0521
11525SOL    HW136016   3.847   0.761   0.184 -0.5771 -1.6169 -0.3979
11525SOL    HW236017   3.700   0.746   0.150 -0.0265 -0.3964 -3.6219
11526SOL     OW36018   4.043   0.693   1.092 -0.8069  0.3019  0.1207
11526SOL    HW136019   3.952   0.724   1.088 -0.7548  0.4157 -0.2517
11526SOL    HW236020   4.079   0.734   1.171 -0.8717  0.8341 -0.1238
11527SOL     OW36021   2.291   0.470   0.137 -0.1855  0.0990 -0.0516
11527SOL    HW136022   2.261   0.381   0.151 -0.4281  0.1252 -0.4077
11527SOL    HW236023   2.350   0.487   0.210  0.6333 -0.6971 -0.5040
11528SOL     OW36024   1.924   7.009   3.104  0.2705 -0.4357 -0.1071
11528SOL    HW136025   1.849   6.973   3.151  1.1980 -1.1181  0.8961
11528SOL    HW236026   1.917   7.103   3.116 -0.9204 -0.4106 -0.8151
11529SOL     OW36027   1.114   7.107   0.576  0.1673 -0.0680  0.4144
11529SOL    HW136028   1.148   7.193   0.553 -0.1353  0.2374  1.0985
11529SOL    HW236029   1.022   7.122   0.599  0.2477 -0.4908  1.0332
11530SOL     OW36030   1.665   7.974  12.187  0.3244 -0.0414 -0.2321
11530SOL    HW136031   1.624   8.047  12.232 -0.0745 -0.8961  0.8241
11530SOL    HW236032   1.747   8.010  12.153  0.4344  0.7322  0.8137
11531SOL     OW36033   2.044   1.197  11.521  0.6067 -0.4665  0.4716
11531SOL    HW136034   1.972   1.259  11.513  1.4601  0.3673 -1.2530
11531SOL    HW236035   2.105   1.238  11.583  0.6933 -0.0459  0.1125
11532SOL     OW36036   1.688   7.633   1.356  0.2790  0.6998 -0.1544
11532SOL    HW136037   1.730   7.637   1.270 -0.1604  0.4014 -0.3865
11532SOL    HW236038   1.676   7.725   1.380 -0.0043  0.7870 -0.6145
11533SOL     OW36039   2.313   7.736   0.809  0.3154 -0.3243  0.3538
11533SOL    HW136040   2.400   7.708   0.781  0.2772  0.3935 -0.5168
11533SOL    HW236041   2.272   7.772   0.730  0.3581  2.1206  1.3502
11534SOL     OW36042   2.878   6.726  12.000  0.2443  0.1052  0.6680
11534SOL    HW136043   2.973   6.731  11.998  0.2986 -0.9807 -0.8228
11534SOL    HW236044   2.848   6.814  11.979  0.9327  0.1619 -0.0863
11535SOL     OW36045   2.001   7.390   2.412 -0.1130  0.8473  0.0109
11535SOL    HW136046   1.921   7.355   2.374  0.0467  0.0023  0.4313
11535SOL    HW236047   1.972   7.437   2.490 -0.2140  0.6428  0.0980
11536SOL     OW36048   4.983   7.380   0.360  0.0078  0.1816 -0.0833
11536SOL    HW136049   5.016   7.470   0.353 -1.6640  0.7709 -0.6735
11536SOL    HW236050   4.919   7.383   0.430 -0.0222 -0.5846 -0.0671
11537SOL     OW36051   2.764   6.418   1.751 -0.5071 -0.1991 -0.4286
11537SOL    HW136052   2.857   6.439   1.735 -0.5177  0.5119  0.3636
11537SOL    HW236053   2.766   6.333   1.794 -0.1670  0.1221  0.2090
11538SOL     OW36054   1.351   0.633   0.824 -0.2819 -0.5696 -0.7114
11538SOL    HW136055   1.313   0.612   0.910  0.7246  0.3066 -0.0103
11538SOL    HW236056   1.319   0.566   0.765 -0.5816 -1.5012  0.4863
11539SOL     OW36057   2.315   7.306   2.575  0.3129 -0.4663 -0.3851
11539SOL    HW136058   2.324   7.277   2.484  0.9909  2.5888 -1.4174
11539SOL    HW236059   2.289   7.398   2.568  1.7194  0.2669  2.4936
11540SOL     OW36060   3.054   6.090   2.815 -0.4381 -0.3633 -0.0687
11540SOL    HW136061   3.003   6.170   2.808 -0.1897 -0.0432  1.4040
11540SOL    HW236062   3.018   6.032   2.747 -0.4108  1.0830 -1.3566
11541SOL     OW36063   1.552   6.584   0.884  0.2215  0.3372  0.3438
11541SOL    HW136064   1.485   6.580   0.952  1.1301  1.5145  1.3412
11541SOL    HW236065   1.561   6.677   0.864 -0.3724 -0.0195 -1.7744
11542SOL     OW36066   0.497   7.279   1.880  0.6584  0.1233  0.3301
11542SOL    HW136067   0.430   7.325   1.931  0.5247  0.3608 -0.0569
11542SOL    HW236068   0.580   7.307   1.919  0.5959  0.9696 -0.1233
11543SOL     OW36069   3.597   7.821   0.510  0.4553  0.1581  0.5084
11543SOL    HW136070   3.556   7.773   0.438  0.2330  1.4770 -0.2763
11543SOL    HW236071   3.621   7.905   0.472 -1.0742  1.5046  2.3439
11544SOL     OW36072   2.464   6.757   1.773  0.1009 -0.4144 -0.0939
11544SOL    HW136073   2.471   6.698   1.699 -0.3972  0.2184 -0.6655
11544SOL    HW236074   2.392   6.816   1.750 -1.2256 -1.2755  1.6460
11545SOL     OW36075   2.642   6.937   1.252  0.1284 -0.2338 -0.6210
11545SOL    HW136076   2.646   6.955   1.346  1.8665 -1.8328 -0.3362
11545SOL    HW236077   2.702   7.001   1.213  2.6659 -2.1691 -0.1197
11546SOL     OW36078   4.226   0.270  11.638 -0.3033  0.4649  0.0168
11546SOL    HW136079   4.141   0.261  11.595 -0.3759 -2.0780  0.5290
11546SOL    HW236080   4.287   0.290  11.567 -1.2153  1.7632 -0.4310
11547SOL     OW36081   1.518   0.001  11.790 -0.1166 -0.7088 -0.6619
11547SOL    HW136082   1.561  -0.074  11.829 -0.0768  0.4113  1.6111
11547SOL    HW236083   1.529   0.072  11.854 -1.0363  0.9624 -2.2358
11548SOL     OW36084   2.848   7.590   2.415  0.0056  0.2942  0.2536
11548SOL    HW136085   2.915   7.629   2.471  0.9636 -1.1700  0.1831
11548SOL    HW236086   2.780   7.562   2.476 -0.3514  1.3643  0.3701
11549SOL     OW36087   2.793   6.913   1.596  0.9015 -0.3762  0.3742
11549SOL    HW136088   2.823   6.880   1.681 -0.6607 -2.2938  0.2553
11549SOL    HW236089   2.827   6.851   1.532  1.4182  0.6252 -0.3567
11550SOL     OW36090   1.219   7.796   2.726 -0.6009  0.3128  0.3130
11550SOL    HW136091   1.161   7.872   2.731 -1.4001 -0.2430 -0.2025
11550SOL    HW236092   1.170   7.733   2.673  0.0219 -0.5832  0.7899
11551SOL     OW36093   1.314   6.265   2.624  0.4916  0.4208 -0.1796
11551SOL    HW136094   1.284   6.196   2.565  2.5471 -0.3964 -0.3663
11551SOL    HW236095   1.270   6.246   2.707 -0.3013 -0.0805 -0.7054
11552SOL     OW36096   1.652   7.565  12.142  0.0466  0.3878 -0.2226
11552SOL    HW136097   1.581   7.518  12.186 -0.2292  0.0978 -0.9569
11552SOL    HW236098   1.732   7.528  12.179 -0.1733 -0.3993 -0.5133
11553SOL     OW36099   1.974   0.023   2.274 -0.2436  0.1532 -0.1543
11553SOL    HW136100   1.879   0.018   2.281 -0.1715  0.7225  2.4911
11553SOL    HW236101   2.006  -0.019   2.354  1.5985  2.2552  0.3295
11554SOL     OW36102   2.605   0.188   0.909  0.4222 -0.2511  0.2613
11554SOL    HW136103   2.634   0.221   0.994 -0.6853  1.1707  0.1308
11554SOL    HW236104   2.631   0.096   0.909  1.3944 -0.0122  1.6959
11555SOL     OW36105   5.835   1.074  12.128  0.1092 -0.0184 -0.0701
11555SOL    HW136106   5.857   1.164  12.104  3.0270 -0.1000  1.7742
11555SOL    HW236107   5.866   1.021  12.055 -1.9589  0.3931 -1.3368
11556SOL     OW36108   2.794   7.476   1.273 -0.2018 -0.0604  0.2673
11556SOL    HW136109   2.782   7.571   1.272 -2.7026 -0.2937  0.8404
11556SOL    HW236110   2.705   7.441   1.280  0.7466 -2.4122  1.7324
11557SOL     OW36111   4.283   6.719   1.686 -0.1588  0.7573 -0.4255
11557SOL    HW136112   4.306   6.626   1.681 -0.1199  0.8157 -1.9907
11557SOL    HW236113   4.367   6.764   1.697 -0.0182  0.6700 -1.0716
11558SOL     OW36114   1.969   6.673   0.136  0.2808  0.1769  0.1777
11558SOL    HW136115   1.988   6.752   0.188  1.0871  0.1444 -0.0606
11558SOL    HW236116   1.881   6.647   0.164 -0.8383  2.2595 -1.1014
11559SOL     OW36117   2.934   0.056   0.502 -0.0549 -0.2025  0.0434
11559SOL    HW136118   2.978   0.134   0.468 -1.3354  0.1123 -0.9627
11559SOL    HW236119   2.930   0.070   0.597  1.5395 -0.0188  0.0994
11560SOL     OW36120   2.999   7.526   0.786  0.4309  0.0962  0.2498
11560SOL    HW136121   2.904   7.529   0.799  0.2810 -1.6624 -0.2261
11560SOL    HW236122   3.013   7.569   0.702 -0.0557 -0.4568 -0.1216
11561SOL     OW36123   5.201   7.443   1.574 -0.3275 -0.7080 -0.1537
11561SOL    HW136124   5.200   7.533   1.542  0.5976 -0.3337  0.8144
11561SOL    HW236125   5.123   7.435   1.628 -0.1114 -0.2973  0.2255
11562SOL     OW36126   0.388   6.908   1.097 -0.0578  0.0820 -0.5766
11562SOL    HW136127   0.412   6.923   1.189 -1.3357 -0.2275 -0.1696
11562SOL    HW236128   0.293   6.921   1.095 -0.6048 -3.1703 -1.1164
11563SOL     OW36129   1.710   0.645   3.032 -0.0570 -0.0397  0.0641
11563SOL    HW136130   1.794   0.615   3.066 -1.1982 -2.3954  1.0947
11563SOL    HW236131   1.711   0.740   3.043  2.0403 -0.1311  1.0067
11564SOL     OW36132   2.835   0.319   0.709  0.6398  0.0239  0.1172
11564SOL    HW136133   2.882   0.244   0.745  0.5187 -0.5191 -0.8208
11564SOL    HW236134   2.742   0.295   0.714  0.7007 -1.3069 -3.0747
11565SOL     OW36135   2.326   7.890   1.823 -0.1700  0.2401  0.0270
11565SOL    HW136136   2.291   7.932   1.745  1.5317  1.2070 -0.2593
11565SOL    HW236137   2.264   7.911   1.892 -0.9885  0.5222 -0.7851
11566SOL     OW36138   4.356   0.518   1.954  0.5827  0.1212 -0.2141
11566SOL    HW136139   4.433   0.531   2.009  1.2014 -2.6225 -0.2496
11566SOL    HW236140   4.386   0.539   1.866  0.8612  0.4930 -0.0314
11567SOL     OW36141   4.758   0.528   1.387  0.1356 -0.0520  0.5396
11567SOL    HW136142   4.715   0.602   1.431  0.8371  0.8009 -0.1775
11567SOL    HW236143   4.743   0.544   1.294  0.8498 -0.4752  0.3485
11568SOL     OW36144   2.466   6.518   1.649 -0.0799  0.2951 -0.1648
11568SOL    HW136145   2.422   6.475   1.575  1.7866 -1.3400 -0.4076
11568SOL    HW236146   2.549   6.470   1.659  1.3798  2.8292  0.6602
11569SOL     OW36147   3.633   1.491   1.234  0.1863 -0.5238  0.3678
11569SOL    HW136148   3.619   1.413   1.288 -0.8875  0.5889  1.7637
11569SOL    HW236149   3.717   1.525   1.263  0.8050 -1.2910 -0.4579
11570SOL     OW36150   1.351   5.345  11.803 -0.0198  0.2042 -0.4790
11570SOL    HW136151   1.366   5.333  11.897 -0.0888 -0.3182 -0.5343
11570SOL    HW236152   1.436   5.325  11.763 -0.3286 -0.8172 -0.6298
11571SOL     OW36153   1.900   0.371   0.665 -0.0220 -0.3991 -0.5080
11571SOL    HW136154   1.930   0.380   0.755  0.2718 -0.7239 -0.5720
11571SOL    HW236155   1.977   0.342   0.616 -0.0911  0.1125 -0.9311
11572SOL     OW36156   3.098   6.883   0.385 -0.3294 -0.5672 -0.7240
11572SOL    HW136157   3.164   6.951   0.369 -0.8892 -0.4000 -2.5588
11572SOL    HW236158   3.126   6.841   0.466  0.3262  1.4919  0.1924
11573SOL     OW36159   3.285   6.717   2.023  0.0775 -0.3876  0.6170
11573SOL    HW136160   3.285   6.749   2.113 -0.1351 -1.1885  0.9108
11573SOL    HW236161   3.301   6.795   1.970 -2.0171  0.5334  1.2048
11574SOL     OW36162   1.196   6.601   3.268  0.1300 -0.5654 -0.0886
11574SOL    HW136163   1.129   6.592   3.336 -0.6022  2.8769 -0.1855
11574SOL    HW236164   1.244   6.680   3.292  0.9309 -0.1738 -2.6944
11575SOL     OW36165   3.583   6.201   3.437 -0.3705 -0.2547 -0.2006
11575SOL    HW136166   3.583   6.121   3.385  0.6540 -0.5478  0.2225
11575SOL    HW236167   3.572   6.170   3.527  3.6357 -0.3214  0.4394
11576SOL     OW36168   3.598   7.573   3.131  0.0594  0.0004 -0.5334
11576SOL    HW136169   3.509   7.544   3.151  0.1137 -0.0413 -0.3501
11576SOL    HW236170   3.592   7.610   3.043 -0.8145  2.7273  0.5598
11577SOL     OW36171   3.609   0.330   4.132  0.3439  0.5184  0.4178
11577SOL    HW136172   3.543   0.261   4.122  1.8332 -1.0075  0.6385
11577SOL    HW236173   3.690   0.283   4.152  1.2402  2.4037  1.4885
11578SOL     OW36174   4.117   0.645   2.778  0.4894  0.5223  0.0541
11578SOL    HW136175   4.141   0.577   2.842  0.3351  0.3867 -0.0293
11578SOL    HW236176   4.045   0.693   2.820  0.2947  0.3452 -0.0719
11579SOL     OW36177   3.558   1.091   2.859  0.2081 -0.0923  0.1743
11579SOL    HW136178   3.627   1.105   2.794 -0.4174 -0.7659 -0.6556
11579SOL    HW236179   3.604   1.090   2.943  1.6134 -2.8903 -0.5124
11580SOL     OW36180   1.443   0.203   2.332 -0.1928 -0.2637  0.0932
11580SOL    HW136181   1.373   0.139   2.319  1.1014 -1.4821 -1.2982
11580SOL    HW236182   1.420   0.275   2.273 -1.0631  0.0627  0.8120
11581SOL     OW36183   4.125   7.459   3.436 -0.0029 -0.3466 -0.4133
11581SOL    HW136184   4.183   7.521   3.481 -2.2071 -0.2843  2.6565
11581SOL    HW236185   4.074   7.513   3.376 -0.9050  0.6411  1.1869
11582SOL     OW36186   3.702   1.097   4.693 -0.6984  0.1321  0.3668
11582SOL    HW136187   3.699   1.189   4.718 -1.3663  0.6533 -1.4373
11582SOL    HW236188   3.636   1.089   4.624 -0.4244 -1.6333  0.2644
11583SOL     OW36189   4.713   0.240   4.054 -0.2200 -0.1740  0.2186
11583SOL    HW136190   4.665   0.308   4.006 -1.0021 -1.4399 -0.8675
11583SOL    HW236191   4.771   0.288   4.113 -0.5706  1.4277 -0.6964
11584SOL     OW36192   3.317   0.680   5.763  0.0140 -0.4506 -0.0064
11584SOL    HW136193   3.406   0.645   5.753  0.3884  1.0100 -2.3674
11584SOL    HW236194   3.302   0.678   5.858  1.6285 -2.8883  0.3094
11585SOL     OW36195   2.454   1.416   4.108 -1.0252  0.2042 -0.1522
11585SOL    HW136196   2.526   1.433   4.169  0.0765 -0.8441 -1.1187
11585SOL    HW236197   2.422   1.329   4.133 -1.9068  0.6175  0.1973
11586SOL     OW36198   3.379   7.299   2.265 -0.0634  0.2279  0.1446
11586SOL    HW136199   3.463   7.345   2.268 -0.1313  0.3492  0.2194
11586SOL    HW236200   3.356   7.296   2.172 -0.1842  0.5780  0.1611
11587SOL     OW36201   2.227   7.051   3.716  0.0010  0.7163  0.0062
11587SOL    HW136202   2.318   7.073   3.735  1.0843 -3.7217  1.0140
11587SOL    HW236203   2.228   7.022   3.625  0.2227 -1.6056  0.6924
11588SOL     OW36204   4.162   1.270   4.022  0.3532 -0.3366  0.0446
11588SOL    HW136205   4.238   1.252   3.966  1.3583  0.1182  1.2223
11588SOL    HW236206   4.106   1.326   3.968  0.8731 -0.6125 -0.8147
11589SOL     OW36207   3.796   7.944   4.261  0.2485  0.6601  0.0245
11589SOL    HW136208   3.733   7.904   4.202 -0.0557  3.3489 -1.6707
11589SOL    HW236209   3.863   7.877   4.274 -0.6954 -0.7309 -1.8041
11590SOL     OW36210   2.623   7.023   2.494 -0.0655  0.3625 -0.1245
11590SOL    HW136211   2.624   7.108   2.538  1.9556  0.4827 -0.2746
11590SOL    HW236212   2.710   7.016   2.455 -0.6636 -1.1987 -1.2695
11591SOL     OW36213   2.355   0.265  12.233 -0.3348  0.7579  0.4659
11591SOL    HW136214   2.387   0.230  12.150 -0.9404  2.6273 -0.6274
11591SOL    HW236215   2.426   0.322  12.263 -1.1039  2.0430 -0.0867
11592SOL     OW36216   2.494   0.332   2.510 -0.3217  0.1707 -0.3983
11592SOL    HW136217   2.574   0.379   2.533 -0.0503 -0.3402 -0.2680
11592SOL    HW236218   2.426   0.372   2.564  0.1269 -0.3570  0.6035
11593SOL     OW36219   0.896   0.194  12.489 -0.1253 -0.0803 -0.3421
11593SOL    HW136220   0.981   0.238  12.497  0.1612 -0.3715 -1.5721
11593SOL    HW236221   0.864   0.187  12.579  0.7598  0.7968  0.0598
11594SOL     OW36222   2.354   6.682   3.665 -0.1976 -0.0685 -0.3252
11594SOL    HW136223   2.280   6.654   3.720 -0.7882  0.7642 -0.6685
11594SOL    HW236224   2.315   6.743   3.603  0.7469  0.1856 -0.6805
11595SOL     OW36225   4.473   7.312   3.535 -0.2858 -0.1405 -0.3421
11595SOL    HW136226   4.486   7.402   3.565 -0.9524 -0.1434 -0.0065
11595SOL    HW236227   4.414   7.274   3.600 -0.8739 -0.4879 -1.0641
11596SOL     OW36228   2.315   7.197   2.301 -0.1482  0.4521  0.1395
11596SOL    HW136229   2.222   7.173   2.308  0.0513 -0.0697  1.3046
11596SOL    HW236230   2.359   7.115   2.281 -0.2283  1.2314 -4.1593
11597SOL     OW36231   2.232   0.230   2.317  0.4279 -0.2096 -0.0843
11597SOL    HW136232   2.174   0.235   2.392 -0.1515  1.8444 -0.5853
11597SOL    HW236233   2.177   0.253   2.242  1.1036 -1.7027 -1.0931
11598SOL     OW36234   3.310   6.071   3.512 -0.3815 -0.4737  0.0274
11598SOL    HW136235   3.327   5.994   3.567 -0.8106 -0.5861  0.0091
11598SOL    HW236236   3.215   6.082   3.517 -0.2671  0.3775  0.4640
11599SOL     OW36237   1.014   5.699   3.517 -0.0374 -0.0187 -0.6493
11599SOL    HW136238   0.919   5.698   3.530  0.1628 -0.4920  1.0901
11599SOL    HW236239   1.048   5.647   3.590  1.5434 -0.1358 -1.4346
11600SOL     OW36240   2.222   0.691   2.171 -0.5143  0.0641 -0.4759
11600SOL    HW136241   2.276   0.625   2.214  0.1203  0.8696 -0.0052
11600SOL    HW236242   2.192   0.649   2.090 -0.4323 -0.9211 -0.0015
11601SOL     OW36243   1.351   6.080   4.111  1.0833  0.4308  0.4198
11601SOL    HW136244   1.379   6.151   4.168 -0.4429  0.5132  1.1246
11601SOL    HW236245   1.301   6.124   4.041  0.8899  0.1295  0.3666
11602SOL     OW36246   1.893   7.391   4.901 -0.3146 -0.1310 -0.3632
11602SOL    HW136247   1.807   7.349   4.896 -0.9682  0.7046  2.3167
11602SOL    HW236248   1.885   7.453   4.974  2.9423 -1.0026  0.8967
11603SOL     OW36249   3.017   6.422   0.225  0.0136 -0.7301 -0.4958
11603SOL    HW136250   2.980   6.343   0.186 -0.0260 -0.6124 -0.7010
11603SOL    HW236251   2.968   6.494   0.184 -0.5221 -0.6301  0.2905
11604SOL     OW36252   2.751   1.211   3.827  0.0780 -0.3583  0.5191
11604SOL    HW136253   2.774   1.127   3.789  0.5185  0.7439 -1.7965
11604SOL    HW236254   2.737   1.192   3.920 -0.1221 -3.0064  0.0239
11605SOL     OW36255   3.852   7.584   2.172 -0.1011  0.0952 -0.1410
11605SOL    HW136256   3.825   7.625   2.254 -2.9676 -1.3266 -0.2741
11605SOL    HW236257   3.944   7.561   2.187 -0.3843  0.3240  2.4662
11606SOL     OW36258   1.989   7.865   2.500  0.2960 -0.0832 -0.4540
11606SOL    HW136259   2.080   7.839   2.510  1.0021  1.4700 -2.3625
11606SOL    HW236260   1.955   7.807   2.432 -0.5394 -1.4069  1.0008
11607SOL     OW36261   4.239   6.993   3.358  0.3697  0.2438  0.6714
11607SOL    HW136262   4.144   6.987   3.350  0.4113 -0.6423  0.7066
11607SOL    HW236263   4.259   7.085   3.341 -0.1861 -0.1074 -2.3470
11608SOL     OW36264   1.646   1.405   4.131 -0.5674  0.3941 -0.5147
11608SOL    HW136265   1.658   1.479   4.190  1.7098 -0.7217  0.5695
11608SOL    HW236266   1.558   1.374   4.149 -1.2574  2.2868 -0.3823
11609SOL     OW36267   3.409   7.135   3.623  0.0124 -0.2141 -0.2532
11609SOL    HW136268   3.434   7.163   3.711 -1.5476 -0.9734  0.4684
11609SOL    HW236269   3.477   7.073   3.597  0.8055  0.4668  0.1546
11610SOL     OW36270   2.242   6.258   1.900 -0.1027  0.2424  0.7983
11610SOL    HW136271   2.231   6.268   1.805 -1.4589 -0.5450  0.8518
11610SOL    HW236272   2.287   6.338   1.927  1.3405 -0.0153 -0.6544
11611SOL     OW36273   2.525   0.708   2.255  0.2498  0.2870  0.5227
11611SOL    HW136274   2.548   0.675   2.168  1.4160  1.8866  0.1745
11611SOL    HW236275   2.480   0.635   2.297 -0.7734 -0.3799 -1.5796
11612SOL     OW36276   3.263   6.565   3.559 -0.8624  0.1991  0.2545
11612SOL    HW136277   3.238   6.556   3.651 -1.4631 -0.8974  0.0023
11612SOL    HW236278   3.341   6.511   3.549 -0.7344  0.4010  0.1335
11613SOL     OW36279   2.720   0.101   3.779 -0.2231 -0.0501  0.2482
11613SOL    HW136280   2.752   0.043   3.849 -1.7597 -0.2947  0.7897
11613SOL    HW236281   2.762   0.185   3.797  0.0888 -0.3408  0.9387
11614SOL     OW36282   1.997   7.524   2.657 -0.2798  0.1729 -0.6446
11614SOL    HW136283   1.969   7.615   2.665  0.7336  0.3522  2.8929
11614SOL    HW236284   1.955   7.479   2.730  2.2754 -1.2422  0.1059
11615SOL     OW36285   1.308   7.988   4.055 -0.0790 -0.0699  0.2533
11615SOL    HW136286   1.287   8.033   3.973 -1.6497  0.9995  1.2043
11615SOL    HW236287   1.378   8.040   4.094 -0.8593  0.7090  0.6335
11616SOL     OW36288   3.891   7.264   4.703 -0.0026 -0.2483 -0.6236
11616SOL    HW136289   3.823   7.328   4.681  0.0787  0.2176  0.4123
11616SOL    HW236290   3.917   7.288   4.792  3.1183  1.0102 -1.7481
11617SOL     OW36291   2.460   6.729   1.209  0.0426 -0.8900  0.1750
11617SOL    HW136292   2.506   6.805   1.174  0.7541 -0.5855  1.6868
11617SOL    HW236293   2.372   6.734   1.170  0.5237 -0.1001 -0.8332
11618SOL     OW36294   3.357   7.855   3.863  0.1992  0.3202 -0.1466
11618SOL    HW136295   3.276   7.869   3.911  0.5866  1.0460  0.3222
11618SOL    HW236296   3.422   7.838   3.932  1.4890  4.7148 -0.0181
11619SOL     OW36297   4.604   7.416   4.128 -0.1633  0.2987  0.0355
11619SOL    HW136298   4.584   7.334   4.173 -1.6595 -0.0370 -1.1565
11619SOL    HW236299   4.542   7.479   4.166  0.5589  0.7384  0.5017
11620SOL     OW36300   5.359   0.069   1.422  0.1075 -0.1829  0.0400
11620SOL    HW136301   5.300   0.123   1.474  1.7298  2.2402 -0.5041
11620SOL    HW236302   5.305   0.036   1.350 -0.8752  0.8976  0.2644
11621SOL     OW36303   5.407   0.059   4.471 -0.6224 -0.0902 -0.4171
11621SOL    HW136304   5.321   0.100   4.455 -0.0667  1.1753 -0.3023
11621SOL    HW236305   5.443   0.108   4.545  0.3488 -0.3626 -0.6975
11622SOL     OW36306   2.762   7.776   1.213  0.5628  0.1922 -0.4364
11622SOL    HW136307   2.771   7.796   1.120 -0.1387  0.4034 -0.4586
11622SOL    HW236308   2.676   7.734   1.221  1.2906 -1.3502 -0.1437
11623SOL     OW36309   4.815   6.100   3.304 -0.0074 -0.2794 -0.0102
11623SOL    HW136310   4.847   6.072   3.219 -0.1642  2.3442 -1.0417
11623SOL    HW236311   4.725   6.127   3.288  0.1214  0.7318  0.8561
11624SOL     OW36312   4.176   1.070   2.802  0.1994  0.1048 -0.0574
11624SOL    HW136313   4.132   1.132   2.744  0.2672 -0.1593 -0.3994
11624SOL    HW236314   4.113   0.999   2.814  0.2528  0.0737  0.0454
11625SOL     OW36315   2.769   0.269   1.892 -0.3146  0.0738  0.2907
11625SOL    HW136316   2.800   0.206   1.828  0.0701 -1.4578  1.9050
11625SOL    HW236317   2.712   0.328   1.842  1.6182  0.2618 -1.8387
11626SOL     OW36318   2.785   0.698   2.462 -0.3722 -0.0240 -0.1534
11626SOL    HW136319   2.732   0.739   2.393  0.2536  0.1230 -0.5526
11626SOL    HW236320   2.846   0.642   2.415 -1.2984 -1.5482  0.3918
11627SOL     OW36321   2.257   7.566   2.558 -0.3892  0.5362 -0.2256
11627SOL    HW136322   2.187   7.565   2.623  1.8702  0.3622  2.3635
11627SOL    HW236323   2.258   7.655   2.525 -1.4930  0.6664  0.0528
11628SOL     OW36324   2.935   7.718   3.763 -0.5555  0.3106  0.1462
11628SOL    HW136325   2.930   7.786   3.829 -1.1634  0.3678  0.0482
11628SOL    HW236326   3.008   7.662   3.790 -0.9323  0.2119  0.9794
11629SOL     OW36327   3.517   6.865   2.722 -0.0986 -0.1351 -0.6136
11629SOL    HW136328   3.513   6.956   2.691 -0.9736 -0.0191 -0.1986
11629SOL    HW236329   3.509   6.813   2.642 -0.1370  0.1518 -0.8000
11630SOL     OW36330   2.461   7.418   4.249  0.7081  0.8212  0.3452
11630SOL    HW136331   2.480   7.475   4.174 -0.1093 -0.7427 -1.1150
11630SOL    HW236332   2.387   7.461   4.293  0.8644  1.4980 -0.0313
11631SOL     OW36333   3.010   0.670   3.061 -0.2433  0.3087 -0.4993
11631SOL    HW136334   2.979   0.740   3.119 -0.9380 -0.4663  0.0879
11631SOL    HW236335   2.937   0.656   3.001  0.4287  1.0258 -1.5188
11632SOL     OW36336   4.883   0.335   4.276 -0.3170 -0.1161  0.3321
11632SOL    HW136337   4.897   0.414   4.224 -2.3176 -0.1282 -0.2795
11632SOL    HW236338   4.972   0.308   4.301  0.7282  0.1509 -2.6704
11633SOL     OW36339   1.774   7.107   2.856  0.2311 -0.1245 -0.0127
11633SOL    HW136340   1.802   7.195   2.878  2.8310 -0.6759 -0.7166
11633SOL    HW236341   1.807   7.052   2.927 -1.6183 -0.5453  0.5762
11634SOL     OW36342   3.830   7.749   3.118  0.2893  0.2046 -0.0884
11634SOL    HW136343   3.734   7.743   3.120  0.2925  0.2483  1.1185
11634SOL    HW236344   3.849   7.833   3.159  0.9084 -1.0393  2.3722
11635SOL     OW36345   3.780   6.499   5.916  0.1853  0.1337  0.0173
11635SOL    HW136346   3.822   6.430   5.966  0.2083 -1.1449 -1.6908
11635SOL    HW236347   3.774   6.465   5.827 -1.8348  1.4258 -0.4219
11636SOL     OW36348   3.404   7.127   2.491  0.2333 -0.0731 -0.0241
11636SOL    HW136349   3.387   7.183   2.416 -1.6906 -1.5161 -0.7524
11636SOL    HW236350   3.443   7.048   2.454  2.5910  0.5595  0.9468
11637SOL     OW36351   2.966   0.905   2.125  0.6850  0.0170 -0.4193
11637SOL    HW136352   2.989   0.911   2.218 -0.7697 -1.0441  0.0398
11637SOL    HW236353   2.873   0.926   2.122  0.6736 -0.1388 -1.6212
11638SOL     OW36354   1.908   7.797   1.785 -0.1745 -0.0605  0.2188
11638SOL    HW136355   1.984   7.748   1.816 -1.4544 -1.8190  0.7601
11638SOL    HW236356   1.859   7.735   1.732  0.3359  1.9650 -2.9099
11639SOL     OW36357   4.476   6.845   4.315 -0.1958 -0.3248 -0.4518
11639SOL    HW136358   4.446   6.755   4.306  0.1122 -0.4575 -0.1713
11639SOL    HW236359   4.559   6.848   4.268  0.8379 -0.7311  1.2484
11640SOL     OW36360   0.680   1.655   4.666  0.1465 -0.7451  0.6768
11640SOL    HW136361   0.761   1.702   4.685 -0.3196  0.2722  0.2871
11640SOL    HW236362   0.611   1.711   4.703 -0.4019 -1.3718  0.6229
11641SOL     OW36363   3.459   7.741   4.485  0.0294  0.4821 -0.0578
11641SOL    HW136364   3.508   7.759   4.405  0.0749 -0.5668 -0.2843
11641SOL    HW236365   3.479   7.814   4.543 -0.1068  1.3325 -1.0441
11642SOL     OW36366   1.603   6.945   5.569  0.0695  0.4455 -0.0755
11642SOL    HW136367   1.644   6.974   5.651 -0.7334  1.4580 -0.0103
11642SOL    HW236368   1.643   6.860   5.551 -0.2547 -0.1222  1.7340
11643SOL     OW36369   3.898   0.889   5.057  0.1432  0.0565  0.2240
11643SOL    HW136370   3.854   0.805   5.067 -0.6620  0.4968  0.4444
11643SOL    HW236371   3.827   0.954   5.053  0.7445  0.7139 -0.0550
11644SOL     OW36372   3.529   6.777   4.232  0.3025 -0.6761  0.2421
11644SOL    HW136373   3.558   6.862   4.267  0.8082 -0.3026 -1.0160
11644SOL    HW236374   3.587   6.762   4.157 -1.5321 -0.8380 -1.2043
11645SOL     OW36375   3.973   1.177   2.197  0.5251  0.1117 -0.3201
11645SOL    HW136376   3.982   1.190   2.103 -0.6986  0.3747 -0.4100
11645SOL    HW236377   3.881   1.154   2.210  0.3702  1.3160  0.9402
11646SOL     OW36378   3.717   0.639   4.916  0.4040  0.0295 -0.7198
11646SOL    HW136379   3.646   0.582   4.885 -0.4390  1.3179 -1.2154
11646SOL    HW236380   3.727   0.617   5.008 -0.8744  0.0618 -0.5552
11647SOL     OW36381   3.311   7.331   5.601 -0.9488  0.1384  0.0238
11647SOL    HW136382   3.292   7.329   5.694 -0.5996 -2.5153  0.1277
11647SOL    HW236383   3.393   7.380   5.594 -0.9044  0.2431  1.1314
11648SOL     OW36384   2.363   7.989   3.939 -0.0884 -0.1794 -0.1194
11648SOL    HW136385   2.383   7.920   3.876 -0.4347  0.4756 -0.9718
11648SOL    HW236386   2.358   8.069   3.886 -0.6471  0.3458  0.7002
11649SOL     OW36387   3.616   6.418   8.781  0.4253 -0.0933 -0.1798
11649SOL    HW136388   3.592   6.386   8.868  1.6938  1.6022  0.8453
11649SOL    HW236389   3.686   6.482   8.797  1.5379 -0.6157 -2.5548
11650SOL     OW36390   2.147   0.631   4.306  0.0876 -0.2931  0.0904
11650SOL    HW136391   2.222   0.585   4.344 -1.1695 -0.0439  3.0854
11650SOL    HW236392   2.187   0.695   4.247  2.1597 -1.0523  0.5800
11651SOL     OW36393   2.488   7.736   4.476 -0.3735  0.2495 -0.1674
11651SOL    HW136394   2.502   7.760   4.568  2.8669 -1.2098 -0.1521
11651SOL    HW236395   2.417   7.672   4.479 -0.3201  0.2191  1.3310
11652SOL     OW36396   2.546   7.727   2.735 -0.2397  0.2474 -0.0248
11652SOL    HW136397   2.635   7.754   2.757 -0.3887 -1.7203  3.9495
11652SOL    HW236398   2.558   7.646   2.684  0.3172 -0.1840  0.7580
11653SOL     OW36399   3.362   6.449   7.447  0.1267 -0.0079  0.0831
11653SOL    HW136400   3.422   6.375   7.436 -0.8363 -0.8548  0.3931
11653SOL    HW236401   3.289   6.414   7.497 -1.4454  0.5182 -1.7178
11654SOL     OW36402   1.518   1.677   4.457  0.1235  0.4602 -0.4397
11654SOL    HW136403   1.536   1.646   4.545  0.6700  1.2610 -0.2563
11654SOL    HW236404   1.452   1.746   4.469 -0.5898 -0.1560 -0.7684
11655SOL     OW36405   2.056   7.633   4.656 -0.2439  0.0486  0.1589
11655SOL    HW136406   2.103   7.568   4.603  0.7305 -0.9649  2.1375
11655SOL    HW236407   1.981   7.658   4.603  0.0501 -1.7656 -1.2040
11656SOL     OW36408   5.499   7.296   3.439  0.3237 -0.0723  0.1396
11656SOL    HW136409   5.508   7.331   3.350  1.3595 -0.4398  0.0834
11656SOL    HW236410   5.587   7.299   3.475  0.1919 -1.3131  0.6240
11657SOL     OW36411   4.375   6.348   5.556  0.4426 -0.1468  0.1012
11657SOL    HW136412   4.469   6.333   5.555  0.5925  0.6981  0.5672
11657SOL    HW236413   4.352   6.367   5.465  0.7763 -0.0181  0.0432
11658SOL     OW36414   2.449   7.590   3.160  0.1421  0.2224 -0.0055
11658SOL    HW136415   2.495   7.508   3.143  0.7078  0.7917 -1.3771
11658SOL    HW236416   2.512   7.645   3.205  0.3242  0.4826 -0.5705
11659SOL     OW36417   3.248   0.108   4.842 -0.2069  0.2820  0.1375
11659SOL    HW136418   3.299   0.053   4.902  0.6970  2.1636  1.1610
11659SOL    HW236419   3.176   0.051   4.814  1.0250 -1.6296  0.6330
11660SOL     OW36420   2.464   1.271   5.271  0.5850  0.0065 -0.5478
11660SOL    HW136421   2.371   1.255   5.252  0.1050  1.5322  0.3225
11660SOL    HW236422   2.486   1.348   5.219  1.8421 -1.2387 -1.9522
11661SOL     OW36423   3.317   7.394   4.990 -0.1534  0.1806  0.3039
11661SOL    HW136424   3.365   7.351   5.061  2.1458  0.0003 -1.2465
11661SOL    HW236425   3.253   7.328   4.961  0.7575 -0.7797  0.4322
11662SOL     OW36426   4.125   1.735   3.210 -0.1954  0.2344 -0.2602
11662SOL    HW136427   4.142   1.748   3.304 -1.2107  0.2000 -0.0547
11662SOL    HW236428   4.209   1.752   3.168  0.3444  0.0011  0.6794
11663SOL     OW36429   2.870   0.379   3.362 -0.3043 -0.3195  0.0364
11663SOL    HW136430   2.857   0.470   3.334 -0.4909 -0.3091  0.1473
11663SOL    HW236431   2.785   0.337   3.346 -0.5787 -0.1839  1.0484
11664SOL     OW36432   2.352   7.120   4.015  0.5981 -0.0209  0.1360
11664SOL    HW136433   2.376   7.142   4.105  0.7889 -0.1687  0.1211
11664SOL    HW236434   2.435   7.098   3.972  0.8542  2.3625 -0.7502
11665SOL     OW36435   1.569   0.827   5.547 -0.5844 -0.1146  0.2049
11665SOL    HW136436   1.503   0.888   5.581 -0.9269 -0.1281 -0.4207
11665SOL    HW236437   1.519   0.749   5.521 -0.1953 -0.5244  0.6589
11666SOL     OW36438   3.195   0.035   4.296  0.3087  0.2122 -0.4250
11666SOL    HW136439   3.113   0.076   4.322 -0.2032 -0.8170 -0.3897
11666SOL    HW236440   3.240   0.014   4.378  0.6093  0.7657 -0.4437
11667SOL     OW36441   1.905   7.356   1.437  0.1988 -0.4736 -0.3897
11667SOL    HW136442   1.923   7.448   1.455 -0.4744 -0.5639  0.9247
11667SOL    HW236443   1.965   7.332   1.367  0.9519  0.7537 -0.1865
11668SOL     OW36444   3.528   7.577   5.348  0.0515 -0.1237  0.1458
11668SOL    HW136445   3.566   7.587   5.261 -0.8012 -0.0859 -0.2291
11668SOL    HW236446   3.550   7.658   5.393  0.2034 -0.0011 -0.1479
11669SOL     OW36447   4.061   1.136   4.216 -0.0414  0.2690  0.1334
11669SOL    HW136448   4.097   1.168   4.133  0.1341  0.4522  0.2787
11669SOL    HW236449   4.054   1.042   4.204  0.6517  0.2073  0.1599
11670SOL     OW36450   1.479   7.238   5.135 -0.4578 -0.3252 -0.7247
11670SOL    HW136451   1.409   7.244   5.069  0.4733 -0.2390 -1.7311
11670SOL    HW236452   1.520   7.153   5.118 -0.1191 -0.2395 -0.3351
11671SOL     OW36453   2.862   6.914   8.124  0.1943  0.4916 -0.6283
11671SOL    HW136454   2.933   6.850   8.124  0.4458  0.7650 -0.9080
11671SOL    HW236455   2.806   6.889   8.197  0.2472 -0.0970 -0.7860
11672SOL     OW36456   1.877   7.730   4.454  0.4746  0.1666  0.0028
11672SOL    HW136457   1.953   7.772   4.413  0.3753  1.6801  1.2717
11672SOL    HW236458   1.811   7.798   4.458 -1.2615 -1.3237 -1.7138
11673SOL     OW36459   2.598   5.765   4.500 -0.4811  0.2805  0.0842
11673SOL    HW136460   2.670   5.703   4.499 -0.7206 -0.0365  1.1540
11673SOL    HW236461   2.532   5.728   4.441  0.1562  0.4927 -0.7706
11674SOL     OW36462   0.531   7.901   5.383  0.4781  0.2258 -0.0532
11674SOL    HW136463   0.498   7.835   5.321 -0.4960  1.5129 -0.9529
11674SOL    HW236464   0.528   7.983   5.334  3.1610  0.7450  0.5238
11675SOL     OW36465   1.732   7.633   4.746  0.2115 -0.7175  0.1684
11675SOL    HW136466   1.673   7.609   4.817  0.0681 -1.3521 -0.1591
11675SOL    HW236467   1.808   7.577   4.758  0.8429  0.2244  0.6947
11676SOL     OW36468   4.086   7.005   4.840  0.2130 -0.4574 -0.1091
11676SOL    HW136469   4.018   6.943   4.815  0.6888 -0.8162 -0.5038
11676SOL    HW236470   4.041   7.067   4.898 -0.1953 -1.3343  0.5313
11677SOL     OW36471   6.537   7.714   3.822  0.2206 -0.0775 -0.6976
11677SOL    HW136472   6.622   7.732   3.861 -0.2425 -0.3342  0.4465
11677SOL    HW236473   6.499   7.800   3.804  0.4750  0.0406 -0.6614
11678SOL     OW36474   4.423   1.650   4.469 -0.0038  0.3737 -0.2669
11678SOL    HW136475   4.419   1.656   4.565  1.1641 -0.3370 -0.1643
11678SOL    HW236476   4.466   1.731   4.442  0.6894  0.0631 -0.1033
11679SOL     OW36477   2.905   0.559   2.747  0.0582  0.1965 -0.5451
11679SOL    HW136478   2.938   0.518   2.667  0.4780  0.0153 -0.2819
11679SOL    HW236479   2.921   0.653   2.734 -0.1664  0.1983 -0.8083
11680SOL     OW36480   3.631   0.091   6.636  0.5280 -0.3028  0.1926
11680SOL    HW136481   3.690   0.136   6.575 -0.8756  0.0449 -0.9814
11680SOL    HW236482   3.588   0.162   6.684  0.7725 -0.5377  0.7676
11681SOL     OW36483   2.595   0.990   2.627 -0.1217  0.5949 -0.1034
11681SOL    HW136484   2.684   0.966   2.655  0.8950  0.3369 -3.0850
11681SOL    HW236485   2.545   0.909   2.635 -0.2973  0.8557  2.0645
11682SOL     OW36486   0.547   0.121   5.238  0.0934 -0.1249 -0.1341
11682SOL    HW136487   0.613   0.187   5.217  1.0895 -1.4047 -1.1813
11682SOL    HW236488   0.466   0.171   5.250  0.5099  1.1706 -2.2502
11683SOL     OW36489   3.303   0.375   5.480 -0.7066 -0.3122 -0.5107
11683SOL    HW136490   3.322   0.468   5.476 -1.5430 -0.1856 -2.0313
11683SOL    HW236491   3.227   0.369   5.538 -0.3485 -0.1148 -0.0137
11684SOL     OW36492   4.511   0.999   3.307  0.3653 -0.1122  0.1374
11684SOL    HW136493   4.465   1.020   3.226 -0.3006  0.9853  0.7665
11684SOL    HW236494   4.604   1.010   3.286  0.1933  0.2325 -0.4625
11685SOL     OW36495   3.405   1.170   4.952 -0.6173  0.0378  0.1463
11685SOL    HW136496   3.336   1.119   4.909 -0.5421 -0.1990  0.3054
11685SOL    HW236497   3.358   1.234   5.005 -0.7417 -0.8863  1.1889
11686SOL     OW36498   3.608   5.597   4.683 -0.1115  0.0066  0.8054
11686SOL    HW136499   3.637   5.508   4.701 -1.2487  0.0406  3.1628
11686SOL    HW236500   3.576   5.595   4.593  0.8562 -1.6789  0.4678
11687SOL     OW36501   3.207   6.885   4.498  0.4586  0.1766 -0.1588
11687SOL    HW136502   3.235   6.865   4.587 -0.1407 -0.8022 -0.1758
11687SOL    HW236503   3.289   6.897   4.450  0.7818  1.1391  0.6012
11688SOL     OW36504   3.384   7.324   3.438 -0.0830  0.8916 -0.5045
11688SOL    HW136505   3.470   7.366   3.432 -0.7752  2.7235  1.4762
11688SOL    HW236506   3.397   7.254   3.502  0.4328 -0.3395 -1.8945
11689SOL     OW36507   2.697   7.016   4.366 -0.4114  0.3773 -0.4248
11689SOL    HW136508   2.766   7.057   4.418  0.3103  0.3153 -1.3134
11689SOL    HW236509   2.644   7.090   4.334 -0.3711  0.4693 -0.2819
11690SOL     OW36510   1.295   7.914   4.435 -0.0353  0.0863  0.6782
11690SOL    HW136511   1.389   7.901   4.446  0.0213  0.5079  0.6921
11690SOL    HW236512   1.279   8.004   4.462 -0.4539  0.0010  0.7352
11691SOL     OW36513   5.883   7.916   6.634 -0.5580 -0.1163  0.4752
11691SOL    HW136514   5.811   7.902   6.572  0.2354  0.4292 -0.5970
11691SOL    HW236515   5.962   7.894   6.585 -0.0530 -2.7844  2.2806
11692SOL     OW36516   1.463   7.525   5.245 -0.2878 -0.0205  0.4770
11692SOL    HW136517   1.485   7.434   5.226 -0.9085  0.1208 -1.1303
11692SOL    HW236518   1.465   7.531   5.340  1.9706 -1.1325  0.5551
11693SOL     OW36519   2.026   6.603   4.871 -0.7307  0.2506  0.5859
11693SOL    HW136520   2.026   6.509   4.858  0.0275  0.1489  1.2007
11693SOL    HW236521   1.955   6.619   4.933 -0.8502  0.0751  0.4918
11694SOL     OW36522   3.237   6.997   5.015  0.2280  0.5697 -0.0695
11694SOL    HW136523   3.242   7.085   4.977  1.4796  0.3174 -0.5404
11694SOL    HW236524   3.143   6.980   5.024 -0.0489  1.5450 -0.9125
11695SOL     OW36525   3.216   0.437   3.745  0.1339 -0.1807 -0.0635
11695SOL    HW136526   3.135   0.452   3.695  0.1359 -0.1868 -0.0688
11695SOL    HW236527   3.265   0.373   3.693 -0.1512 -0.6778  0.2649
11696SOL     OW36528   3.107   0.320   4.565 -0.5907 -0.1172 -0.2642
11696SOL    HW136529   3.088   0.313   4.659  2.2000  0.3856  0.4305
11696SOL    HW236530   3.072   0.405   4.540  0.5990  0.7645  0.9179
11697SOL     OW36531   2.437   7.909   3.059 -0.1122  0.6439 -0.3235
11697SOL    HW136532   2.436   7.834   2.999 -2.4686  0.1129  0.2947
11697SOL    HW236533   2.463   7.872   3.143 -1.1621  0.5159 -0.0445
11698SOL     OW36534   4.299   6.332   6.374  0.7137 -0.7098 -0.4913
11698SOL    HW136535   4.325   6.296   6.459  0.6426  0.1879 -0.0777
11698SOL    HW236536   4.267   6.420   6.394 -0.4409 -0.9222 -1.2914
11699SOL     OW36537   1.803   6.040   4.552  0.6810 -0.2380 -0.0466
11699SOL    HW136538   1.815   6.134   4.538 -2.0832  0.2663  0.3935
11699SOL    HW236539   1.870   5.999   4.497  2.7028  1.9428  0.6042
11700SOL     OW36540   4.212   7.233   4.610 -0.3437 -0.3714  0.0555
11700SOL    HW136541   4.134   7.192   4.650  0.4640 -2.3085 -0.2311
11700SOL    HW236542   4.269   7.159   4.588  1.5958  0.9954  0.2538
11701SOL     OW36543   3.515   7.031   4.393 -0.1206 -0.7300  0.2942
11701SOL    HW136544   3.552   7.115   4.366  1.1933 -1.3632  0.0359
11701SOL    HW236545   3.485   7.045   4.483 -1.6515  0.5157 -0.3701
11702SOL     OW36546   4.625   6.404   1.659  0.2347 -0.1887  0.2374
11702SOL    HW136547   4.645   6.310   1.653 -0.9213 -0.4831  0.5671
11702SOL    HW236548   4.585   6.414   1.746 -0.1316  0.5080 -0.0025
11703SOL     OW36549   3.099   0.270   6.713  0.2481  0.0361  0.4045
11703SOL    HW136550   3.061   0.236   6.794  1.4037 -0.1075  0.8934
11703SOL    HW236551   3.121   0.192   6.662 -0.3615  0.1242 -0.0066
11704SOL     OW36552   4.325   6.895   4.822 -0.8888 -0.0142 -0.0817
11704SOL    HW136553   4.242   6.933   4.796 -1.5392 -0.3013  1.4955
11704SOL    HW236554   4.372   6.965   4.867 -0.7728 -0.1814  0.0630
11705SOL     OW36555   1.801   7.372   6.159  0.7135 -0.1150  0.7906
11705SOL    HW136556   1.846   7.387   6.076 -0.1083  0.4311  0.4323
11705SOL    HW236557   1.846   7.297   6.198  2.5578  0.9814  0.8958
11706SOL     OW36558   1.738   6.287   5.245  0.0146 -0.0613 -0.1685
11706SOL    HW136559   1.713   6.310   5.335 -1.4899 -0.0233 -0.5732
11706SOL    HW236560   1.815   6.341   5.227  0.6557 -0.4397  1.2589
11707SOL     OW36561   2.991   0.589   6.851 -0.1010  0.2036 -0.3125
11707SOL    HW136562   3.010   0.533   6.776 -2.4180  0.3531 -1.0870
11707SOL    HW236563   2.897   0.578   6.866  0.1678  0.7058  2.1597
11708SOL     OW36564   2.590   6.209   5.473  0.0871 -0.2721 -0.0735
11708SOL    HW136565   2.498   6.193   5.493 -0.0347  0.2513 -0.2071
11708SOL    HW236566   2.588   6.273   5.402  0.5505 -0.3417 -0.1487
11709SOL     OW36567   4.129   7.256   8.071  0.0835  0.0242 -0.1110
11709SOL    HW136568   4.078   7.247   8.151  1.2409  1.0971  0.8099
11709SOL    HW236569   4.072   7.304   8.011  0.0955  1.5883  1.0461
11710SOL     OW36570   2.262   7.192   7.027 -0.7081  0.6555  0.7964
11710SOL    HW136571   2.341   7.140   7.042 -1.7616 -1.0516  0.6253
11710SOL    HW236572   2.279   7.274   7.074  1.2344  0.4192  0.5921
11711SOL     OW36573   7.218   6.234   6.681 -0.1063  0.6098  0.5461
11711SOL    HW136574   7.136   6.211   6.638 -1.2509  0.8690  2.4593
11711SOL    HW236575   7.279   6.166   6.654 -1.2194 -0.1296 -0.1885
11712SOL     OW36576   3.574   7.892   5.449 -0.0671  0.6964  0.1578
11712SOL    HW136577   3.628   7.937   5.385  0.6631  3.0916  2.2821
11712SOL    HW236578   3.489   7.937   5.446 -0.3366  0.2029  0.2229
11713SOL     OW36579   2.194   7.828   8.091 -0.2030 -0.0060  0.1214
11713SOL    HW136580   2.137   7.885   8.143 -1.0791 -0.8712  0.1315
11713SOL    HW236581   2.200   7.871   8.006  1.6438  1.6856  1.0379
11714SOL     OW36582   4.944   7.049   7.286  0.1870  0.2343 -0.4317
11714SOL    HW136583   4.971   7.036   7.195 -0.8228 -1.2312 -0.5517
11714SOL    HW236584   4.950   6.962   7.326 -1.8714  0.3085  0.1812
11715SOL     OW36585   2.293   0.391   5.908 -0.1591 -0.0815 -0.4967
11715SOL    HW136586   2.209   0.347   5.922  0.1570 -0.1040  1.5230
11715SOL    HW236587   2.354   0.346   5.966  0.2845  2.6236  1.3152
11716SOL     OW36588   2.539   7.423   7.703 -0.2455  0.2628 -0.4016
11716SOL    HW136589   2.544   7.337   7.662  0.5010  0.6628 -1.1719
11716SOL    HW236590   2.449   7.452   7.688 -0.9472 -0.9801  1.1327
11717SOL     OW36591   2.497   6.734   6.882 -0.2965 -0.1159  0.4928
11717SOL    HW136592   2.494   6.806   6.945  0.9315 -0.4086  0.9074
11717SOL    HW236593   2.451   6.768   6.805 -0.1688  0.9279  0.8590
11718SOL     OW36594   2.831   0.204   7.595  0.7842 -0.0415  0.3841
11718SOL    HW136595   2.882   0.283   7.612 -0.9404  1.7222 -1.9463
11718SOL    HW236596   2.745   0.222   7.632  0.6768 -1.3570  0.8463
11719SOL     OW36597   2.329   6.553   6.439 -1.3022 -0.0333 -0.4072
11719SOL    HW136598   2.302   6.629   6.388  0.6966  0.7310 -0.4215
11719SOL    HW236599   2.296   6.478   6.390 -2.9360  0.7877 -0.6272
11720SOL     OW36600   1.718   0.325   6.928 -0.7490 -0.2366 -0.7231
11720SOL    HW136601   1.812   0.336   6.934 -0.8429 -0.1248  0.9120
11720SOL    HW236602   1.703   0.231   6.940 -0.9232 -0.0841  0.2798
11721SOL     OW36603   4.879   6.834   5.907 -0.3224  0.2537  0.0357
11721SOL    HW136604   4.888   6.919   5.951 -0.0211 -0.1264  0.7363
11721SOL    HW236605   4.796   6.840   5.860 -0.4808  0.8120  0.3696
11722SOL     OW36606   3.028   6.165   7.689  0.1386 -0.4206  0.2650
11722SOL    HW136607   3.048   6.238   7.631  0.8220 -0.5196  0.3690
11722SOL    HW236608   3.039   6.087   7.634 -2.9916 -0.4147 -0.5736
11723SOL     OW36609   3.594   0.698   6.502 -0.0114  0.4395  0.6107
11723SOL    HW136610   3.685   0.671   6.504  0.4410  1.0873 -3.1941
11723SOL    HW236611   3.560   0.674   6.588  3.5045 -0.4979  1.9168
11724SOL     OW36612   3.420   1.633   7.957 -0.6098  0.3073  0.1794
11724SOL    HW136613   3.404   1.545   7.992  1.0083 -0.1739 -0.2229
11724SOL    HW236614   3.505   1.658   7.993  0.2243  0.5812 -1.8284
11725SOL     OW36615   3.696   0.140   7.176  0.3221 -0.5709 -0.4337
11725SOL    HW136616   3.624   0.184   7.129 -0.1874 -0.3898  0.4873
11725SOL    HW236617   3.677   0.156   7.268  0.7969 -1.7051 -0.1252
11726SOL     OW36618   2.949   7.347   5.686  0.0326 -0.6355  0.1966
11726SOL    HW136619   2.873   7.295   5.662  1.1204 -1.7412 -1.0563
11726SOL    HW236620   2.954   7.341   5.781 -2.0410  0.3904  0.4292
11727SOL     OW36621   1.863   6.889   5.449  0.0387  0.5992 -0.2971
11727SOL    HW136622   1.937   6.843   5.489 -1.1828 -0.5514  0.6942
11727SOL    HW236623   1.894   6.979   5.439  0.1427  1.3131  4.2553
11728SOL     OW36624   2.576   6.181   6.749  0.8556 -0.3591 -0.1034
11728SOL    HW136625   2.494   6.201   6.795  2.2803  1.1583  1.9431
11728SOL    HW236626   2.598   6.263   6.704  0.5597 -1.2105 -1.9148
11729SOL     OW36627   2.086   7.588   7.494  0.8873  0.2815 -0.3760
11729SOL    HW136628   2.036   7.669   7.487 -0.0790 -0.3032 -0.4082
11729SOL    HW236629   2.066   7.540   7.413  1.4031 -0.0207 -0.3327
11730SOL     OW36630   3.664   6.699   5.320 -0.0741 -0.8268 -0.3076
11730SOL    HW136631   3.604   6.667   5.386 -1.6624  0.6530 -0.9558
11730SOL    HW236632   3.618   6.685   5.237  1.4164 -1.6567 -1.0374
11731SOL     OW36633   3.272   6.482   7.938  0.2120  0.5656 -0.0489
11731SOL    HW136634   3.267   6.489   8.033 -0.8608  0.0014 -0.0530
11731SOL    HW236635   3.291   6.390   7.922 -1.5958  0.2162 -0.4157
11732SOL     OW36636   3.326   1.385   8.016  0.3315  0.3929  0.6836
11732SOL    HW136637   3.259   1.345   7.961  0.6271  1.4319 -0.5004
11732SOL    HW236638   3.309   1.352   8.104  0.5394 -2.2541 -0.1793
11733SOL     OW36639   2.795   7.958   6.462  0.1877  0.0066  0.3076
11733SOL    HW136640   2.712   7.960   6.414  1.5140  0.6987 -2.0953
11733SOL    HW236641   2.770   7.929   6.550 -2.1652 -3.1207 -1.1659
11734SOL     OW36642   2.021   7.074   7.134 -0.2690 -0.4254  0.1716
11734SOL    HW136643   2.109   7.097   7.106 -1.3334  1.3821 -1.9659
11734SOL    HW236644   2.028   6.983   7.164  2.4773  0.0071  1.0729
11735SOL     OW36645   2.734   7.323   7.337 -0.6549 -0.3020 -0.4952
11735SOL    HW136646   2.716   7.229   7.341  0.3544 -0.4887 -0.2342
11735SOL    HW236647   2.679   7.354   7.264  0.5382 -1.4679 -1.9612
11736SOL     OW36648   2.460   6.502   5.601 -0.3821 -0.0465 -0.2154
11736SOL    HW136649   2.401   6.427   5.608  1.5299 -1.5295  1.0566
11736SOL    HW236650   2.404   6.573   5.570 -2.2743 -1.9818 -1.6006
11737SOL     OW36651   2.359   1.425   6.993 -0.0944  0.0302 -0.2132
11737SOL    HW136652   2.404   1.394   6.915  0.5663 -0.1284  0.2249
11737SOL    HW236653   2.428   1.458   7.050 -0.5732  0.1916  0.2901
11738SOL     OW36654   1.995   7.796   7.258  0.2268  0.2232  0.4186
11738SOL    HW136655   1.940   7.719   7.275 -0.0716  0.3907  0.2239
11738SOL    HW236656   1.986   7.849   7.337 -0.5401  0.6326  0.0664
11739SOL     OW36657   3.859   6.239   5.402  0.8542  0.3760 -0.3455
11739SOL    HW136658   3.829   6.317   5.449  1.3090  1.3335 -1.5888
11739SOL    HW236659   3.795   6.172   5.424  0.6551  0.9855  1.0487
11740SOL     OW36660   2.508   5.597   4.836  0.4439  0.0746  0.0954
11740SOL    HW136661   2.601   5.608   4.814  0.3570 -0.7936 -0.8091
11740SOL    HW236662   2.462   5.650   4.770  0.2861  0.3405  0.4179
11741SOL     OW36663   0.758   7.595   5.016 -0.1547 -0.0796  0.3750
11741SOL    HW136664   0.841   7.570   5.056 -0.3325 -0.0548  0.7649
11741SOL    HW236665   0.692   7.553   5.071 -0.4126  0.2385  0.3073
11742SOL     OW36666   3.334   7.470   6.173  0.1691  0.6831 -0.2644
11742SOL    HW136667   3.393   7.402   6.204 -0.6026 -0.4488 -1.2026
11742SOL    HW236668   3.364   7.489   6.084  0.6581  1.9239  0.1352
11743SOL     OW36669   3.231   0.376   5.892  0.2390  0.0819  0.4412
11743SOL    HW136670   3.170   0.351   5.961 -0.8152  1.1616 -0.0636
11743SOL    HW236671   3.186   0.445   5.843  2.0172  1.2127  0.2960
11744SOL     OW36672   3.040   7.888   6.381 -0.6450 -0.3098  0.2678
11744SOL    HW136673   2.949   7.902   6.406 -0.6569 -0.1779  0.1462
11744SOL    HW236674   3.035   7.828   6.306 -0.6285 -0.3415  0.2920
11745SOL     OW36675   2.593   0.033   5.305 -0.3526 -0.2468 -0.3801
11745SOL    HW136676   2.547  -0.009   5.233 -1.5452  0.1175  0.1456
11745SOL    HW236677   2.678  -0.012   5.308 -0.9151 -1.4052 -0.9372
11746SOL     OW36678   3.265   6.731   7.758 -0.8503  0.0986  0.6677
11746SOL    HW136679   3.175   6.758   7.738 -0.2607  0.7190 -1.3921
11746SOL    HW236680   3.259   6.687   7.843 -3.2386 -0.6263  0.1955
11747SOL     OW36681   3.412   0.211   7.671  0.0835  0.7469 -0.0890
11747SOL    HW136682   3.435   0.195   7.763  0.3254  0.2886 -0.2257
11747SOL    HW236683   3.496   0.223   7.627  0.2042 -2.0958 -0.8097
11748SOL     OW36684   1.688   6.797   5.226 -0.2778  0.6069 -0.5307
11748SOL    HW136685   1.748   6.856   5.270  1.0117  0.3427 -1.8367
11748SOL    HW236686   1.695   6.715   5.274  1.1524  0.3050 -1.2065
11749SOL     OW36687   3.120   0.127   8.499  0.2539 -0.3115 -0.5065
11749SOL    HW136688   3.040   0.168   8.466  0.2872 -0.3118 -0.5891
11749SOL    HW236689   3.090   0.057   8.557  0.1822  1.0655  1.2175
11750SOL     OW36690   2.746   0.752   2.944  0.4914  0.1191 -0.4020
11750SOL    HW136691   2.744   0.773   2.850  1.2600 -0.8479 -0.6419
11750SOL    HW236692   2.672   0.801   2.980 -0.4422 -0.2857 -1.6764
11751SOL     OW36693   4.355   0.539   6.885 -0.1455  0.6230 -0.1477
11751SOL    HW136694   4.365   0.447   6.859 -1.6933  0.5429 -0.5433
11751SOL    HW236695   4.364   0.538   6.981 -0.7139 -0.0375 -0.0921
11752SOL     OW36696   3.095   0.639   5.361  0.4116  0.6197 -0.7601
11752SOL    HW136697   3.186   0.625   5.388 -0.0792 -0.5901  0.3219
11752SOL    HW236698   3.049   0.663   5.441 -0.4066  0.3399 -1.1318
11753SOL     OW36699   3.463   7.125   6.368  0.0397  0.6956  0.1500
11753SOL    HW136700   3.517   7.151   6.442 -0.2403  2.0524 -0.0918
11753SOL    HW236701   3.450   7.206   6.318  1.2601 -0.3915 -2.0644
11754SOL     OW36702   3.024   6.823   7.680  0.0125 -0.3000 -0.2081
11754SOL    HW136703   3.009   6.739   7.636 -1.0285 -0.7226  0.8953
11754SOL    HW236704   2.945   6.874   7.663 -1.2577 -1.1429  2.5709
11755SOL     OW36705   1.970   7.839   7.533  0.0706 -0.4114  0.1589
11755SOL    HW136706   1.879   7.821   7.558  0.1641  0.5983  1.2723
11755SOL    HW236707   2.015   7.856   7.615  1.3682 -1.2373 -0.3516
11756SOL     OW36708   2.398   5.768   5.942  0.0769 -0.5256  0.0708
11756SOL    HW136709   2.335   5.720   5.888  0.3063 -1.4021  0.5571
11756SOL    HW236710   2.382   5.735   6.031  0.4074  0.1348  0.3806
11757SOL     OW36711   3.261   7.750   6.106  0.8693  0.9203  0.5453
11757SOL    HW136712   3.347   7.742   6.064  0.4826  0.8279 -0.2585
11757SOL    HW236713   3.247   7.664   6.146  0.2326  0.1672 -1.1765
11758SOL     OW36714   2.104   6.249   8.079 -0.0513  0.0534 -0.4143
11758SOL    HW136715   2.188   6.205   8.070  0.3456  0.3191  1.5115
11758SOL    HW236716   2.042   6.179   8.101  0.2274  0.1918  0.8719
11759SOL     OW36717   2.268   7.044   5.134 -0.4806  0.2950 -0.6183
11759SOL    HW136718   2.268   6.969   5.075  0.4340  0.7874 -1.2497
11759SOL    HW236719   2.183   7.038   5.179 -0.8034 -0.5970 -1.3103
11760SOL     OW36720   3.164   6.060   5.791  0.2124 -0.5172 -0.0343
11760SOL    HW136721   3.216   6.140   5.800 -0.6611  0.1373 -0.5920
11760SOL    HW236722   3.110   6.057   5.870  1.8130 -1.7860  1.0907
11761SOL     OW36723   1.539   7.879   7.411  0.4676  0.2261  0.1658
11761SOL    HW136724   1.487   7.959   7.412  1.3709  0.8267  1.3086
11761SOL    HW236725   1.519   7.839   7.326 -0.7259  1.1614 -0.0290
11762SOL     OW36726   2.097   6.984   6.225 -0.0250  0.1610  0.5458
11762SOL    HW136727   2.154   7.052   6.188  1.3805 -1.0206  0.4321
11762SOL    HW236728   2.019   6.984   6.169  1.7128 -1.0630 -2.0888
11763SOL     OW36729   2.144   0.347   7.048  0.3230  0.3646 -0.1246
11763SOL    HW136730   2.105   0.423   7.007  0.8075  1.0837  0.7148
11763SOL    HW236731   2.208   0.315   6.985  0.4447  0.9271 -0.2830
11764SOL     OW36732   4.513   0.227   7.654  0.0363 -0.0032  0.2254
11764SOL    HW136733   4.475   0.315   7.655 -1.8637 -0.7499 -0.8122
11764SOL    HW236734   4.601   0.239   7.617 -0.3163  1.4184 -0.2088
11765SOL     OW36735   4.278   6.712   7.586 -0.3934  0.7461  0.5027
11765SOL    HW136736   4.279   6.775   7.659 -0.0965 -0.8001  1.8803
11765SOL    HW236737   4.340   6.644   7.612  0.3472  0.5425 -1.5986
11766SOL     OW36738   1.741   6.099   6.077  0.4221  0.2546  0.4696
11766SOL    HW136739   1.832   6.075   6.095  0.5251  0.2555 -0.0332
11766SOL    HW236740   1.740   6.195   6.081  0.2069  0.2216  1.5536
11767SOL     OW36741   3.344   7.600   7.841  0.4503 -0.0784  0.1911
11767SOL    HW136742   3.259   7.637   7.864  0.3634  0.4493 -0.9156
11767SOL    HW236743   3.391   7.594   7.924 -0.8258 -0.8166  0.8925
11768SOL     OW36744   2.755   7.807   5.492  0.2342 -0.5456  0.8233
11768SOL    HW136745   2.694   7.736   5.469  1.0003 -0.1495 -3.0871
11768SOL    HW236746   2.841   7.774   5.465  0.8280  1.2073  0.4519
11769SOL     OW36747   3.966   7.452   4.934 -0.4763 -0.1778 -0.0675
11769SOL    HW136748   4.052   7.475   4.899 -0.6886 -1.4334 -1.5364
11769SOL    HW236749   3.909   7.523   4.905  0.0360  0.6780  0.9376
11770SOL     OW36750   5.046   0.113   6.630  0.0342 -0.0484  0.0743
11770SOL    HW136751   5.077   0.069   6.551 -1.3586  1.4345 -1.3828
11770SOL    HW236752   5.035   0.042   6.693  1.7389 -1.2070 -0.8447
11771SOL     OW36753   3.429   7.458   7.457  0.6586  0.5965  0.1896
11771SOL    HW136754   3.419   7.546   7.492 -4.4167  0.3803  0.0048
11771SOL    HW236755   3.413   7.401   7.532 -0.8632 -0.0272 -0.5761
11772SOL     OW36756   1.661   7.778   8.621 -0.4213  0.9343  0.1599
11772SOL    HW136757   1.572   7.806   8.602 -1.0447  0.0392  1.5570
11772SOL    HW236758   1.698   7.849   8.674 -0.6389  0.8588  0.4111
11773SOL     OW36759   0.038   7.775   8.106 -0.4444  0.1336  0.6814
11773SOL    HW136760   0.063   7.691   8.067 -2.0009 -0.1600  0.2466
11773SOL    HW236761   0.004   7.753   8.192 -1.1681  0.2602  0.4376
11774SOL     OW36762   3.837   6.126   7.191  0.1841  0.0813 -0.3060
11774SOL    HW136763   3.811   6.217   7.196  1.1687  0.4174 -0.8613
11774SOL    HW236764   3.885   6.110   7.272 -0.3282 -0.0602 -0.0294
11775SOL     OW36765   2.622   7.338   9.231 -0.5087  0.3954  0.5378
11775SOL    HW136766   2.581   7.424   9.233  0.7337  1.1273 -1.7270
11775SOL    HW236767   2.549   7.276   9.232 -1.4464  1.1794  5.0135
11776SOL     OW36768   2.055   7.414   7.304  0.0088  0.2045 -0.4923
11776SOL    HW136769   2.004   7.337   7.330 -0.1921  0.1799 -0.9483
11776SOL    HW236770   2.057   7.410   7.208  1.1823  0.0026 -0.4833
11777SOL     OW36771   3.036   5.433  10.693 -0.3789 -0.1273 -0.3173
11777SOL    HW136772   2.944   5.421  10.668 -0.1699 -1.2552 -0.6195
11777SOL    HW236773   3.049   5.527  10.695 -1.3430  0.0283 -1.0252
11778SOL     OW36774   2.206   1.441   7.779 -0.2340  0.4373 -0.0928
11778SOL    HW136775   2.208   1.359   7.829  0.6368 -0.3125 -1.3014
11778SOL    HW236776   2.113   1.465   7.776 -0.5851 -0.8320 -0.2008
11779SOL     OW36777   1.599   6.298   7.145 -0.4090 -0.1949  0.4568
11779SOL    HW136778   1.613   6.387   7.114 -1.1773  0.0311  0.7320
11779SOL    HW236779   1.683   6.272   7.184 -0.4419  0.7359  1.1765
11780SOL     OW36780   3.109   6.695   9.165 -0.0407 -0.3645 -0.4335
11780SOL    HW136781   3.203   6.708   9.147 -0.2919  2.0446 -0.3491
11780SOL    HW236782   3.107   6.621   9.225  1.7571 -0.8712 -0.9092
11781SOL     OW36783   3.670   1.080   8.663 -0.1928 -0.4479  0.1190
11781SOL    HW136784   3.637   1.164   8.693  0.5501  0.1416 -0.6384
11781SOL    HW236785   3.717   1.100   8.582  0.6981 -1.4625  0.3508
11782SOL     OW36786   3.158   6.467  10.608  0.3542 -0.0672 -0.4254
11782SOL    HW136787   3.199   6.546  10.573  1.2429 -0.7227 -0.8871
11782SOL    HW236788   3.192   6.460  10.697  0.9022 -0.3626 -0.6556
11783SOL     OW36789   2.289   1.504   8.090  0.1659 -0.0789  0.0816
11783SOL    HW136790   2.195   1.500   8.074  0.0818  0.4055  0.4269
11783SOL    HW236791   2.313   1.594   8.069 -0.0124  0.7134  2.9178
11784SOL     OW36792   2.181   5.726   8.809 -0.2295  0.1679  0.1513
11784SOL    HW136793   2.171   5.792   8.878  0.7171 -0.3665  0.8269
11784SOL    HW236794   2.238   5.767   8.744  0.4784 -0.0165  0.6413
11785SOL     OW36795   1.684   7.661   6.498  0.8915  0.7477 -0.2714
11785SOL    HW136796   1.651   7.747   6.473 -0.2600  0.0557 -1.2640
11785SOL    HW236797   1.617   7.600   6.467  2.2867 -0.6034 -0.7689
11786SOL     OW36798   5.361   0.909   8.639  0.4395 -0.5002 -0.4340
11786SOL    HW136799   5.402   0.851   8.575  1.2982  0.2451 -0.5795
11786SOL    HW236800   5.273   0.874   8.650  1.4071 -2.7463  0.6591
11787SOL     OW36801   2.188   1.053   7.685  0.4160 -0.2543 -0.1577
11787SOL    HW136802   2.182   1.126   7.623 -0.5859  0.6985  1.0234
11787SOL    HW236803   2.272   1.065   7.728  0.5498 -0.1955 -0.4306
11788SOL     OW36804   2.558   6.370   7.745 -0.0691  0.0436  0.4307
11788SOL    HW136805   2.581   6.278   7.751  1.2289  0.3070 -0.1498
11788SOL    HW236806   2.640   6.414   7.721 -0.7608  1.2860  0.2461
11789SOL     OW36807   2.729   6.920   7.644 -0.4907  0.0365  0.2193
11789SOL    HW136808   2.671   6.983   7.600 -0.0932  0.1238 -0.1805
11789SOL    HW236809   2.693   6.835   7.622  0.8989 -0.0489 -2.0579
11790SOL     OW36810   2.797   7.448   8.997 -0.0245 -0.0954 -0.3431
11790SOL    HW136811   2.758   7.413   9.077 -0.1295 -1.6606 -1.0614
11790SOL    HW236812   2.887   7.470   9.022 -0.6689  1.4865  0.7450
11791SOL     OW36813   2.683   5.966   7.459  0.5557  0.1396  0.1322
11791SOL    HW136814   2.700   5.950   7.366  0.9842 -0.2130  0.2651
11791SOL    HW236815   2.604   5.916   7.478 -0.9311  2.0840 -0.5821
11792SOL     OW36816   4.035   0.414   9.023 -0.2399  0.0219  0.7606
11792SOL    HW136817   3.949   0.376   9.041 -0.0782 -1.2149 -0.8249
11792SOL    HW236818   4.074   0.428   9.109 -1.2341 -1.2990  1.4592
11793SOL     OW36819   2.167   6.638   6.720  0.1047  0.3202  0.1447
11793SOL    HW136820   2.216   6.709   6.677  1.4328  0.5655  1.9671
11793SOL    HW236821   2.079   6.675   6.732  0.6297  1.4853  0.6098
11794SOL     OW36822   2.169   7.158   9.587  0.1276 -0.3990  0.2007
11794SOL    HW136823   2.164   7.108   9.506  1.5928  0.3367 -0.3654
11794SOL    HW236824   2.255   7.199   9.586  0.3380 -0.6417  2.3043
11795SOL     OW36825   2.003   7.217   8.261  0.1937 -0.0488  0.7135
11795SOL    HW136826   1.985   7.244   8.351  0.2745  0.4196  0.5899
11795SOL    HW236827   2.099   7.210   8.257  0.1361 -1.3208  1.0182
11796SOL     OW36828   2.681   7.682   8.192  0.2786  0.3349 -0.4143
11796SOL    HW136829   2.684   7.601   8.141  0.4940  0.1540 -0.1146
11796SOL    HW236830   2.763   7.683   8.241  0.1455  0.5898 -0.1941
11797SOL     OW36831   0.526   5.465   8.680  0.0142 -0.3521 -0.4000
11797SOL    HW136832   0.542   5.503   8.593  1.1516 -1.9984 -0.9703
11797SOL    HW236833   0.607   5.418   8.700  0.2291  0.9365  2.1014
11798SOL     OW36834   2.353   6.694   8.569 -0.2622  0.3187 -0.6590
11798SOL    HW136835   2.331   6.778   8.527 -1.0764  0.4285 -0.0298
11798SOL    HW236836   2.387   6.719   8.655  1.7321  0.1131 -1.3202
11799SOL     OW36837   3.137   7.062   7.735 -0.1309 -0.2257  0.1394
11799SOL    HW136838   3.194   7.046   7.809 -1.8728 -0.6974  1.4298
11799SOL    HW236839   3.104   6.976   7.710 -1.2054  0.1510  0.2080
11800SOL     OW36840   2.134   6.945   7.485  0.0245 -0.0970 -0.3404
11800SOL    HW136841   2.198   6.944   7.413 -1.1479 -0.7938 -1.4069
11800SOL    HW236842   2.049   6.940   7.441 -0.7020 -1.0959  1.1286
11801SOL     OW36843   2.165   7.066   9.345  0.5888  0.4506 -0.2604
11801SOL    HW136844   2.155   6.997   9.280 -0.0636  0.8784 -0.6195
11801SOL    HW236845   2.170   7.147   9.294  2.1550  0.6166  0.1083
11802SOL     OW36846   3.182   0.083   7.595  0.2477  0.2685 -0.5182
11802SOL    HW136847   3.276   0.095   7.603  0.3992 -1.2710  0.5168
11802SOL    HW236848   3.145   0.133   7.667  0.4208 -0.4452  0.0828
11803SOL     OW36849   2.645   0.795   8.643 -0.7020  0.0485  0.2143
11803SOL    HW136850   2.701   0.872   8.634  0.0564 -0.5898 -0.5971
11803SOL    HW236851   2.681   0.747   8.717  2.0417 -2.1325 -2.3316
11804SOL     OW36852   2.370   6.106   7.484 -0.6273  0.4605  0.5640
11804SOL    HW136853   2.301   6.173   7.479 -1.6769 -0.6856 -1.5069
11804SOL    HW236854   2.451   6.157   7.483 -1.3715  1.8081  2.2413
11805SOL     OW36855   1.743   5.956   9.369  0.7220  0.3775  0.2501
11805SOL    HW136856   1.791   5.947   9.451 -0.0896 -0.1960  0.6662
11805SOL    HW236857   1.656   5.985   9.394  0.5492  0.4839 -0.4343
11806SOL     OW36858   2.511   0.405   7.290  0.5021 -0.5580 -0.0801
11806SOL    HW136859   2.602   0.385   7.266  1.3736  2.7433 -0.0689
11806SOL    HW236860   2.516   0.430   7.382  0.1220  1.8847 -0.6406
11807SOL     OW36861   1.686   6.513   9.206  0.3921  0.5514  0.4930
11807SOL    HW136862   1.625   6.580   9.237 -1.4732 -0.9682  0.3287
11807SOL    HW236863   1.654   6.491   9.118  3.0719  1.8297 -0.9340
11808SOL     OW36864   4.711   0.754   8.588 -0.1659  0.2158 -0.5883
11808SOL    HW136865   4.653   0.727   8.517 -0.3491 -0.2000 -0.2802
11808SOL    HW236866   4.741   0.841   8.562  0.2887 -0.1984 -1.4954
11809SOL     OW36867   4.087   6.114   7.716 -0.0647  0.0051 -0.6347
11809SOL    HW136868   3.998   6.137   7.692  0.4477  0.6172 -2.0501
11809SOL    HW236869   4.113   6.181   7.780 -0.5290 -0.0274 -0.4106
11810SOL     OW36870   2.542   0.806   7.402 -0.0619 -0.6066  0.5271
11810SOL    HW136871   2.615   0.755   7.367 -0.0105  0.5611 -1.1652
11810SOL    HW236872   2.477   0.805   7.332 -0.0818  1.5903  0.4669
11811SOL     OW36873   3.935   7.616   7.013  0.2276 -0.3442 -0.0070
11811SOL    HW136874   3.857   7.568   6.986 -0.3290 -0.1930  1.2697
11811SOL    HW236875   3.913   7.708   7.000 -0.4880 -0.1914  1.9385
11812SOL     OW36876   1.876   0.738   8.563 -0.0753  0.0407 -0.3149
11812SOL    HW136877   1.885   0.806   8.496  0.3255  0.0770 -0.2260
11812SOL    HW236878   1.886   0.785   8.646  0.1897 -0.1290 -0.2536
11813SOL     OW36879   3.654   6.331  10.222 -0.0179 -0.3551 -0.0670
11813SOL    HW136880   3.644   6.252  10.275  1.6548 -1.1079 -0.7977
11813SOL    HW236881   3.724   6.380  10.264 -1.0139  0.7654  0.3575
11814SOL     OW36882   3.116   0.360   8.689 -0.3056  0.0960  0.1175
11814SOL    HW136883   3.071   0.444   8.680 -0.4716  0.2801  2.2343
11814SOL    HW236884   3.117   0.324   8.600  1.0479  2.9415 -1.1536
11815SOL     OW36885   3.092   1.110  10.222 -0.3783  0.0741 -0.1362
11815SOL    HW136886   3.078   1.034  10.279  0.8059 -0.3318 -0.3472
11815SOL    HW236887   3.018   1.109  10.162 -0.5814 -0.6933  0.1143
11816SOL     OW36888   1.428   5.905   9.413 -0.1276 -0.2265  0.0747
11816SOL    HW136889   1.401   5.987   9.371 -0.1900 -0.3031 -0.0365
11816SOL    HW236890   1.357   5.844   9.394  1.2506 -1.1906 -2.4751
11817SOL     OW36891   1.088   7.970   7.441 -0.1991 -0.3696 -0.3410
11817SOL    HW136892   1.034   7.924   7.506 -0.3304  0.0449 -0.1552
11817SOL    HW236893   1.036   8.045   7.415 -0.3962 -0.8561 -1.3765
11818SOL     OW36894   3.519   7.246   7.902 -0.0363  0.1803 -0.9606
11818SOL    HW136895   3.541   7.170   7.956 -2.2992 -1.1297 -1.7588
11818SOL    HW236896   3.575   7.316   7.935  1.3183 -1.5244  0.5586
11819SOL     OW36897   3.292   0.454   7.556  0.0321 -0.1190  0.2965
11819SOL    HW136898   3.307   0.407   7.638 -1.5958 -0.9417  0.1647
11819SOL    HW236899   3.198   0.442   7.538 -0.3161  2.5830 -0.1229
11820SOL     OW36900   2.307   6.860   6.631 -0.4285  0.3766 -0.3045
11820SOL    HW136901   2.322   6.936   6.688  0.2801 -0.8979  1.2813
11820SOL    HW236902   2.395   6.831   6.606 -0.1889 -3.0632  3.5115
11821SOL     OW36903   3.889   6.200   7.542  0.2951 -0.1855 -0.2236
11821SOL    HW136904   3.850   6.112   7.539 -0.0091 -0.1341  1.3474
11821SOL    HW236905   3.824   6.256   7.501  0.4794 -0.6818 -1.2150
11822SOL     OW36906   0.680   0.031   8.169  0.7587  0.2677  0.2408
11822SOL    HW136907   0.726   0.025   8.086  0.1129 -2.8150 -0.0281
11822SOL    HW236908   0.604  -0.027   8.159 -0.4138  1.2991  2.3486
11823SOL     OW36909   4.855   7.340   7.271 -0.0185  0.4454  0.0718
11823SOL    HW136910   4.910   7.262   7.272  1.4575  1.4401 -0.2682
11823SOL    HW236911   4.766   7.307   7.276  0.4084 -1.4202 -2.5305
11824SOL     OW36912   3.705   5.670   7.986  0.2732  0.0141 -0.3745
11824SOL    HW136913   3.776   5.716   8.032  0.8135 -0.3098 -0.8636
11824SOL    HW236914   3.659   5.623   8.056  1.5917 -1.1453 -0.2156
11825SOL     OW36915   1.933   7.215   6.326 -0.5840 -0.5403  0.0502
11825SOL    HW136916   1.874   7.231   6.399  0.3297 -0.4731  0.7988
11825SOL    HW236917   1.970   7.129   6.344 -0.3739 -0.5345 -0.3463
11826SOL     OW36918   2.204   7.473   6.999 -0.2298  0.6572  0.1929
11826SOL    HW136919   2.117   7.433   7.002  0.0357 -0.2149 -1.8634
11826SOL    HW236920   2.187   7.567   7.004 -1.4109  0.5509 -1.2083
11827SOL     OW36921   1.554   7.098   8.713  0.8184  0.3077  0.0868
11827SOL    HW136922   1.625   7.147   8.672  1.2447 -0.6160 -0.3275
11827SOL    HW236923   1.577   7.096   8.806  1.8615 -0.7638 -0.1604
11828SOL     OW36924   0.562   6.287   8.907 -0.3582 -0.3595 -0.1050
11828SOL    HW136925   0.628   6.270   8.841 -2.0502 -2.6886 -1.3381
11828SOL    HW236926   0.604   6.265   8.990  1.9476  3.0582 -0.1689
11829SOL     OW36927   2.189   5.433   6.015 -0.0955 -0.2148 -0.0105
11829SOL    HW136928   2.147   5.452   6.099 -2.3899  0.3650 -1.1837
11829SOL    HW236929   2.278   5.465   6.025 -0.4843  0.4054  1.9908
11830SOL     OW36930   2.179   7.546   8.368  0.1927  0.7306  0.2231
11830SOL    HW136931   2.267   7.575   8.344  0.4701  0.1123  0.4755
11830SOL    HW236932   2.123   7.622   8.352  0.5275  0.6617 -1.3954
11831SOL     OW36933   2.572   7.047   8.251  0.3235  0.0449  0.4945
11831SOL    HW136934   2.617   6.963   8.259  0.5486  0.2084  1.0673
11831SOL    HW236935   2.587   7.089   8.336 -0.7225  0.2050  0.6034
11832SOL     OW36936   3.552   0.081   9.782 -0.1793  0.2749  0.0965
11832SOL    HW136937   3.461   0.106   9.798  0.0443  1.2285 -0.0289
11832SOL    HW236938   3.604   0.156   9.814  0.6786 -0.9946  1.8315
11833SOL     OW36939   1.338   0.200   8.183 -0.3369 -0.6238  0.0926
11833SOL    HW136940   1.304   0.289   8.173 -2.2732 -1.4055 -0.8515
11833SOL    HW236941   1.324   0.159   8.098  1.0707 -1.6701  0.3365
11834SOL     OW36942   5.146   6.661   8.421  0.3778  0.5917 -0.3593
11834SOL    HW136943   5.080   6.622   8.478  1.3678  0.0736  0.4685
11834SOL    HW236944   5.203   6.709   8.480  1.1823  0.4032 -0.9664
11835SOL     OW36945   3.633   7.980   7.885  0.4083 -0.1642 -0.0995
11835SOL    HW136946   3.600   8.069   7.895 -0.4504 -0.2970 -1.4660
11835SOL    HW236947   3.569   7.925   7.931 -1.2225 -0.3903 -2.4690
11836SOL     OW36948   2.017   6.380   6.735 -0.3668  0.0226 -0.8428
11836SOL    HW136949   2.089   6.435   6.703 -0.1342 -0.3529 -0.9668
11836SOL    HW236950   2.004   6.408   6.826 -0.0028  0.0249 -0.7924
11837SOL     OW36951   4.485   6.913   5.519  0.2948 -0.0752 -0.4926
11837SOL    HW136952   4.442   6.903   5.435  1.2490  0.9311 -1.1316
11837SOL    HW236953   4.442   6.850   5.577 -2.5328  1.3636 -0.8796
11838SOL     OW36954   4.486   6.500   7.371 -0.2517  0.0116  0.2969
11838SOL    HW136955   4.579   6.483   7.358 -0.4852 -1.8604  0.7929
11838SOL    HW236956   4.474   6.500   7.466 -0.8632 -0.5503  0.2311
11839SOL     OW36957   1.372   0.083  10.314  0.1564 -0.3450 -0.5617
11839SOL    HW136958   1.346   0.001  10.272 -2.1429  0.7044 -1.3610
11839SOL    HW236959   1.345   0.151  10.252 -1.0319  1.1544  1.4860
11840SOL     OW36960   2.476   0.162   8.829 -0.6504  0.2532 -0.1664
11840SOL    HW136961   2.552   0.110   8.853 -0.5766  1.4681  2.6226
11840SOL    HW236962   2.464   0.146   8.735  0.3590 -3.3624  0.1939
11841SOL     OW36963   3.343   7.941   8.889  0.2351 -0.5440 -0.1351
11841SOL    HW136964   3.378   7.861   8.927  1.5018 -0.1252 -0.3632
11841SOL    HW236965   3.418   8.000   8.882 -0.8400  1.0622  1.0004
11842SOL     OW36966   2.703   0.205  10.221  0.4444  0.2053 -0.1656
11842SOL    HW136967   2.623   0.174  10.262  0.9618 -0.4194  0.4023
11842SOL    HW236968   2.688   0.196  10.127  0.2296 -0.8961 -0.0338
11843SOL     OW36969   4.525   7.941   9.972 -0.4994 -0.0125  0.2195
11843SOL    HW136970   4.502   8.005  10.040 -1.3028  0.0884 -0.1409
11843SOL    HW236971   4.456   7.949   9.907 -0.5791 -1.2205  0.1357
11844SOL     OW36972   3.328   4.190   9.599  0.3208 -0.1235  0.6368
11844SOL    HW136973   3.310   4.096   9.600 -1.0620  0.0281 -1.9111
11844SOL    HW236974   3.380   4.204   9.520 -0.9049  1.4474  0.0530
11845SOL     OW36975   3.343   7.135  10.191  0.2767 -0.3841  0.2507
11845SOL    HW136976   3.251   7.151  10.211 -0.2148 -2.5886 -0.0040
11845SOL    HW236977   3.379   7.096  10.271  0.7682 -0.3257  0.0623
11846SOL     OW36978   3.714   7.863   9.019  0.3711 -0.0523  0.3247
11846SOL    HW136979   3.637   7.806   9.030  0.1678 -0.2319 -1.7640
11846SOL    HW236980   3.785   7.802   9.000  0.5911  0.2508  0.1766
11847SOL     OW36981   4.409   0.454  11.029  0.4266 -0.4457  0.0340
11847SOL    HW136982   4.415   0.402  11.109  2.4995 -0.3166 -0.0037
11847SOL    HW236983   4.454   0.535  11.049 -2.0905  1.1230 -0.1626
11848SOL     OW36984   2.362   0.770  10.782  0.4368 -0.2019  0.5655
11848SOL    HW136985   2.291   0.709  10.805  0.9126 -1.2581 -0.6446
11848SOL    HW236986   2.437   0.714  10.764  0.9525  0.7619 -0.3803
11849SOL     OW36987   2.590   6.815  11.329 -0.3990  0.1897 -0.0814
11849SOL    HW136988   2.619   6.790  11.416  0.0280  0.6274 -0.0908
11849SOL    HW236989   2.668   6.807  11.274 -0.3257  1.2171 -0.1458
11850SOL     OW36990   1.847   7.764  10.680  0.0165 -0.1435 -0.0050
11850SOL    HW136991   1.762   7.729  10.708  0.8113 -1.5852  0.7301
11850SOL    HW236992   1.858   7.844  10.731 -1.7698  1.1889 -1.5792
11851SOL     OW36993   2.155   0.578   9.898 -0.2318 -0.0340 -0.1739
11851SOL    HW136994   2.067   0.614   9.910 -0.2529 -0.0241 -0.3613
11851SOL    HW236995   2.186   0.561   9.987 -0.1691  0.5692 -0.0741
11852SOL     OW36996   4.916   0.238  10.459  0.1811 -0.2972  0.3033
11852SOL    HW136997   4.873   0.243  10.545 -0.3079  1.2194 -0.0080
11852SOL    HW236998   4.991   0.297  10.466 -0.0145  0.0423 -0.3902
11853SOL     OW36999   2.843   1.044  12.096 -0.7644 -0.9107  0.0058
11853SOL    HW137000   2.756   1.064  12.062 -0.2294  2.7074  0.3298
11853SOL    HW237001   2.834   1.049  12.191 -0.3290 -1.1466  0.0649
11854SOL     OW37002   2.612   6.873  10.470  0.0840 -0.0173  0.2002
11854SOL    HW137003   2.700   6.861  10.504 -0.4355 -0.1280  1.5743
11854SOL    HW237004   2.597   6.968  10.476 -0.5800 -0.1874  1.8736
11855SOL     OW37005   1.745   7.666   9.722 -0.5689 -0.1647  0.1811
11855SOL    HW137006   1.691   7.618   9.659  0.8115  0.9732 -1.9948
11855SOL    HW237007   1.756   7.753   9.683  1.6155  0.0963  1.2472
11856SOL     OW37008   3.457   6.488  10.156  0.1287 -0.1905  0.3354
11856SOL    HW137009   3.403   6.434  10.098  1.4135 -0.8479 -0.2896
11856SOL    HW237010   3.525   6.428  10.188  0.1696  0.4719  1.5591
11857SOL     OW37011   3.257   6.993  11.499  0.3292 -0.0909 -0.5865
11857SOL    HW137012   3.351   6.978  11.487  0.3885  0.9660 -1.6011
11857SOL    HW237013   3.250   7.084  11.527 -0.3188 -0.5724  0.9229
11858SOL     OW37014   4.359   0.917  10.633 -0.0942  0.1439 -0.2062
11858SOL    HW137015   4.342   0.843  10.693  0.3223  0.3721  0.1998
11858SOL    HW237016   4.359   0.877  10.546 -1.0115 -0.1447 -0.0856
11859SOL     OW37017   2.572   7.133  10.757  0.0400 -0.0783  0.1234
11859SOL    HW137018   2.611   7.180  10.830  0.5833 -0.9830  0.4346
11859SOL    HW237019   2.541   7.051  10.795 -2.7242  0.8026  0.0189
11860SOL     OW37020   1.725   5.436  10.574  0.5723 -0.1372  0.2303
11860SOL    HW137021   1.728   5.530  10.589 -0.8450 -0.3308  2.0346
11860SOL    HW237022   1.764   5.397  10.652  0.0887 -1.0709  0.0276
11861SOL     OW37023   2.372   6.692   8.873 -0.0063 -0.1000  0.6951
11861SOL    HW137024   2.398   6.704   8.964  0.6208 -0.7349  0.6032
11861SOL    HW237025   2.290   6.644   8.877 -0.8948  1.3777  0.9677
11862SOL     OW37026   4.626   6.172   9.096  0.0917  0.0664  0.0728
11862SOL    HW137027   4.639   6.249   9.041  2.5876 -0.2301  0.1275
11862SOL    HW237028   4.630   6.204   9.186  3.8027 -0.3103  0.1856
11863SOL     OW37029   3.440   0.150  10.374  0.1431 -0.1545 -0.3997
11863SOL    HW137030   3.480   0.143  10.461  1.4952  1.9089 -0.7818
11863SOL    HW237031   3.444   0.243  10.353  0.8702 -0.7121 -3.1437
11864SOL     OW37032   3.856   7.043   8.575 -0.0198  0.5278 -0.1849
11864SOL    HW137033   3.790   6.984   8.537 -0.2389  1.3276 -1.0672
11864SOL    HW237034   3.891   6.994   8.649 -0.4163 -0.5968 -0.7154
11865SOL     OW37035   2.718   6.669   9.789  0.1621  0.1633  0.0026
11865SOL    HW137036   2.704   6.751   9.835  0.3793  1.6300 -2.3582
11865SOL    HW237037   2.643   6.660   9.731  1.1143 -0.2127 -1.2377
11866SOL     OW37038   2.649   0.194  10.678 -0.1066 -0.6385  0.6102
11866SOL    HW137039   2.642   0.221  10.770 -1.4645  0.3156  0.2595
11866SOL    HW237040   2.703   0.260  10.637 -1.6864  0.4702  0.2015
11867SOL     OW37041   1.496   7.823  10.065 -0.0625  0.7387  0.1453
11867SOL    HW137042   1.510   7.915  10.039  1.5695  0.3816 -0.4094
11867SOL    HW237043   1.418   7.825  10.120  1.5794  2.9347  2.6436
11868SOL     OW37044   2.008   7.037  10.418 -0.3853 -0.5853  0.5159
11868SOL    HW137045   2.039   7.107  10.360 -0.7381 -0.8466 -0.0061
11868SOL    HW237046   1.996   7.079  10.503 -0.7701  0.0358  0.1625
11869SOL     OW37047   3.958   7.987  10.817  0.4107 -0.0022 -0.5183
11869SOL    HW137048   3.987   7.908  10.863  1.4070  0.7063  0.1039
11869SOL    HW237049   3.997   7.980  10.730  0.4420 -0.2208 -0.4875
11870SOL     OW37050   3.965   0.658   9.903 -0.2338 -0.2598  0.2658
11870SOL    HW137051   3.873   0.664   9.876  0.2598 -2.0105 -2.0498
11870SOL    HW237052   4.008   0.731   9.860 -0.3871  0.1476  0.7875
11871SOL     OW37053   3.662   6.944   9.719  0.2544  0.4841 -0.2596
11871SOL    HW137054   3.742   6.961   9.667 -0.2627  0.4887 -1.0737
11871SOL    HW237055   3.672   6.999   9.797  0.8112  0.8803 -0.5996
11872SOL     OW37056   2.203   7.207  10.245  0.0495 -0.6830 -0.0616
11872SOL    HW137057   2.220   7.283  10.299 -1.9766 -0.4698  0.3739
11872SOL    HW237058   2.268   7.211  10.175  0.0134  1.4328 -0.0267
11873SOL     OW37059   2.830   0.492  10.526  0.8375 -0.7835 -0.2353
11873SOL    HW137060   2.856   0.563  10.467 -0.1570 -0.7415 -0.6474
11873SOL    HW237061   2.904   0.431  10.524  1.0107 -0.5626 -1.1850
11874SOL     OW37062   2.000   7.295   9.895  0.2614 -0.1092  0.3327
11874SOL    HW137063   1.950   7.282   9.976  1.9758 -1.3966  1.2355
11874SOL    HW237064   2.090   7.307   9.924  0.5213  2.5209 -1.2301
11875SOL     OW37065   1.685   6.740   9.873  0.0727 -0.3216  0.7246
11875SOL    HW137066   1.645   6.824   9.895  1.4590  0.8182 -0.8680
11875SOL    HW237067   1.695   6.695   9.957 -2.6681  0.1441  1.3966
11876SOL     OW37068   1.938   6.021  10.126  0.0322 -0.5797 -0.0213
11876SOL    HW137069   2.024   6.013  10.166  2.0956  1.1539 -3.6159
11876SOL    HW237070   1.924   5.937  10.081  0.9017 -0.1437 -1.1567
11877SOL     OW37071   3.020   7.674   9.802 -0.0246  0.4390 -0.1687
11877SOL    HW137072   3.067   7.742   9.752  0.4205 -0.7849 -1.4954
11877SOL    HW237073   3.000   7.607   9.737  0.0736 -0.9769  1.2049
11878SOL     OW37074   2.362   0.988   8.926  0.2041  0.4169 -0.2682
11878SOL    HW137075   2.318   1.066   8.959 -2.3237 -0.4478 -1.3856
11878SOL    HW237076   2.398   1.016   8.841  0.0038  0.5650 -0.3048
11879SOL     OW37077   3.488   5.750  10.208 -0.3019 -0.2752  0.2940
11879SOL    HW137078   3.560   5.774  10.266  1.9500 -0.9946 -2.0544
11879SOL    HW237079   3.509   5.661  10.178 -2.0001 -0.3875 -0.7264
11880SOL     OW37080   2.128   5.835  10.778 -0.3273 -0.3257  0.3991
11880SOL    HW137081   2.152   5.847  10.686 -0.8047  0.3504  0.3577
11880SOL    HW237082   2.151   5.744  10.797  0.1357 -0.3527 -0.2778
11881SOL     OW37083   2.985   6.909  10.949 -0.5644 -0.2052 -0.2693
11881SOL    HW137084   2.910   6.897  11.008  0.3289 -1.0183  0.7400
11881SOL    HW237085   3.005   7.003  10.956 -0.6040 -0.2513  0.5707
11882SOL     OW37086   0.848   1.304   9.394 -0.8421 -0.2172  0.2815
11882SOL    HW137087   0.767   1.272   9.353 -0.7341  0.9289 -0.8695
11882SOL    HW237088   0.834   1.398   9.405 -0.6850 -0.3952  2.5274
11883SOL     OW37089   1.997   7.740   9.765 -0.2144 -0.2980 -0.8081
11883SOL    HW137090   2.048   7.667   9.801 -1.4538 -0.8560 -0.1070
11883SOL    HW237091   1.908   7.705   9.757 -0.3917  0.4558 -2.5463
11884SOL     OW37092   2.332   6.691   9.132 -0.2508 -0.0867  0.3894
11884SOL    HW137093   2.288   6.607   9.145 -0.1043 -0.4850 -1.4343
11884SOL    HW237094   2.278   6.754   9.181 -0.5129 -1.1672  1.5592
11885SOL     OW37095   3.192   0.035   9.335 -0.4172  0.2147  0.1871
11885SOL    HW137096   3.162  -0.054   9.316 -0.0153  0.3358 -1.0893
11885SOL    HW237097   3.143   0.060   9.413 -1.6254 -0.5831 -0.2834
11886SOL     OW37098   2.160   0.883  10.322  0.1822  0.1397  0.3215
11886SOL    HW137099   2.070   0.862  10.345  0.7980 -2.3627  0.7044
11886SOL    HW237100   2.163   0.872  10.227  0.1645 -0.1182  0.3508
11887SOL     OW37101   2.672   0.065   9.948  0.0679  0.6749  0.2610
11887SOL    HW137102   2.595   0.014   9.973 -0.3884  2.1668  2.1752
11887SOL    HW237103   2.746   0.005   9.959 -0.6858 -0.3724 -0.2654
11888SOL     OW37104   2.666   6.008   9.449 -0.3182 -0.1471 -0.4931
11888SOL    HW137105   2.704   5.965   9.526 -0.4636  1.5274  0.5732
11888SOL    HW237106   2.577   5.974   9.444  0.0101 -1.0253 -0.5348
11889SOL     OW37107   2.391   7.985  11.913  0.5352 -0.6577  0.2939
11889SOL    HW137108   2.430   7.912  11.865  1.7646 -1.3904  2.2975
11889SOL    HW237109   2.465   8.033  11.950 -0.2602  1.4039 -0.6037
11890SOL     OW37110   2.247   6.697  12.072 -0.5314 -0.1168  0.6123
11890SOL    HW137111   2.241   6.774  12.015 -2.4640 -0.7028 -0.0536
11890SOL    HW237112   2.298   6.634  12.022 -1.1566 -0.1798  0.0433
11891SOL     OW37113   1.980   0.903  10.073 -0.4656  0.1149  0.3889
11891SOL    HW137114   1.979   0.997  10.092 -1.1179 -0.0753  1.3478
11891SOL    HW237115   2.072   0.881  10.065 -0.1374  0.3339  2.8437
11892SOL     OW37116   1.130   6.586   7.796  0.1383  0.1163 -0.0322
11892SOL    HW137117   1.178   6.531   7.735  0.6317  2.4132 -1.8429
11892SOL    HW237118   1.042   6.549   7.798 -0.3019  0.7100 -3.2557
11893SOL     OW37119   2.434   6.960   8.476 -0.2172  0.0238  0.1183
11893SOL    HW137120   2.486   7.018   8.532 -0.9551 -0.7277  1.6354
11893SOL    HW237121   2.471   6.971   8.389  2.1480 -0.0660  1.0392
11894SOL     OW37122   1.066   7.365   9.645  0.5724  0.2073 -0.4010
11894SOL    HW137123   0.975   7.384   9.669  1.0682  1.2373  0.8024
11894SOL    HW237124   1.065   7.360   9.550 -1.1412 -2.0050 -0.3680
11895SOL     OW37125   2.533   7.444   9.803  0.0259  0.4399  0.2653
11895SOL    HW137126   2.590   7.520   9.815 -0.8733  0.8224  2.4450
11895SOL    HW237127   2.567   7.378   9.864  0.7636 -0.9632 -1.5548
11896SOL     OW37128   2.510   6.619  10.624 -0.5458 -0.0540  0.0343
11896SOL    HW137129   2.527   6.687  10.559 -2.2985  0.5100  0.1069
11896SOL    HW237130   2.516   6.664  10.709  1.0376 -0.6331  0.2619
11897SOL     OW37131   2.090   0.812  11.199  0.5901 -0.2133  0.1262
11897SOL    HW137132   2.177   0.823  11.237  0.4355  0.8228  0.2244
11897SOL    HW237133   2.083   0.719  11.180  1.2674 -0.4984  1.2011
11898SOL     OW37134   2.225   7.675  10.817 -0.3596  0.6775  0.3344
11898SOL    HW137135   2.255   7.588  10.791 -0.6289 -0.0811  2.3717
11898SOL    HW237136   2.230   7.727  10.737 -0.9386 -1.3926 -1.1195
11899SOL     OW37137   3.447   7.884  11.135  0.6764  0.2401 -0.2516
11899SOL    HW137138   3.527   7.866  11.183  0.6205  0.6258 -0.0066
11899SOL    HW237139   3.475   7.932  11.057  0.7583 -0.3060 -0.5565
11900SOL     OW37140   2.677   0.045   9.238  0.0290  0.8290  0.6722
11900SOL    HW137141   2.743   0.053   9.168 -1.3172 -1.1932 -0.9497
11900SOL    HW237142   2.629   0.128   9.235  0.2587  0.9403 -0.5294
11901SOL     OW37143   2.068   6.526  10.305 -0.0216 -0.6230  0.3621
11901SOL    HW137144   2.159   6.503  10.323  0.0727 -0.3343  0.2637
11901SOL    HW237145   2.068   6.622  10.299  0.0120 -0.6865 -1.4490
11902SOL     OW37146   1.522   6.388  10.704  0.1985 -0.4795  0.1092
11902SOL    HW137147   1.601   6.381  10.757  1.1096  1.5574 -0.8625
11902SOL    HW237148   1.450   6.388  10.768  1.3213  4.0214  1.7726
11903SOL     OW37149   3.255   5.978   9.517 -0.1757 -0.5231  0.3483
11903SOL    HW137150   3.274   5.888   9.543 -0.0659 -0.3950  0.7093
11903SOL    HW237151   3.161   5.977   9.496 -0.0050 -0.9137 -0.4645
11904SOL     OW37152   2.634   2.447   9.809 -0.5809 -0.0125  0.4895
11904SOL    HW137153   2.722   2.484   9.801 -1.3308  1.9134  0.5214
11904SOL    HW237154   2.632   2.376   9.744  0.4978  0.9472 -0.6525
11905SOL     OW37155   3.782   0.128   8.237  0.3204  0.0921  0.2078
11905SOL    HW137156   3.732   0.208   8.216  0.4595  0.4336  1.1046
11905SOL    HW237157   3.795   0.133   8.332  0.0219 -1.1847  0.3345
11906SOL     OW37158   1.501   7.312  12.237 -0.2420  0.1262 -0.4142
11906SOL    HW137159   1.572   7.248  12.245 -0.6579 -0.1562  1.8179
11906SOL    HW237160   1.450   7.301  12.318 -0.0712  3.6025  0.3111
11907SOL     OW37161   2.569   6.799  11.895 -0.3040  0.3449 -0.0461
11907SOL    HW137162   2.545   6.708  11.912  1.2225  0.2519  1.9254
11907SOL    HW237163   2.526   6.848  11.965 -0.1016  0.9833 -0.3628
11908SOL     OW37164   2.510   7.111  11.794 -0.0620 -0.3107  0.3756
11908SOL    HW137165   2.545   7.191  11.832 -0.2096 -0.1585  0.1930
11908SOL    HW237166   2.420   7.107  11.824 -0.1711 -0.2048  0.0698
11909SOL     OW37167   3.939   1.226   1.386  0.2419 -0.0554 -0.3022
11909SOL    HW137168   3.948   1.163   1.457  0.4177  0.7963  0.4511
11909SOL    HW237169   3.849   1.215   1.355 -0.4505  0.8220  1.2923
11910SOL     OW37170   2.210   7.115  11.288 -0.2514 -0.1690  0.2428
11910SOL    HW137171   2.130   7.064  11.303 -1.1550  0.6638 -1.4540
11910SOL    HW237172   2.215   7.174  11.364 -0.3200 -1.3395  1.1868
11911SOL     OW37173   1.102   0.331  10.502 -0.2288  0.0306  0.1259
11911SOL    HW137174   1.076   0.348  10.412 -1.9267  1.3879  0.8015
11911SOL    HW237175   1.118   0.237  10.505  0.4004  0.0400 -1.6940
11912SOL     OW37176   2.230   7.207   0.048 -0.3492 -0.3423  0.0951
11912SOL    HW137177   2.205   7.116   0.064  0.0311 -0.7610 -1.4861
11912SOL    HW237178   2.296   7.226   0.115  0.0958 -1.4730 -0.0054
11913SOL     OW37179   2.536   1.318  11.581  0.3879 -0.2708 -0.2530
11913SOL    HW137180   2.566   1.409  11.582 -0.2614 -0.0464  0.8934
11913SOL    HW237181   2.448   1.321  11.619  0.2524 -1.3435 -0.4518
11914SOL     OW37182   2.214   6.746   9.859 -1.0777 -0.3102  0.3953
11914SOL    HW137183   2.120   6.726   9.865 -0.7717 -2.0465 -0.0011
11914SOL    HW237184   2.255   6.661   9.841  0.6799  0.2220  1.6330
11915SOL     OW37185   2.560   0.167  11.570 -0.7366  0.3249  0.1745
11915SOL    HW137186   2.479   0.120  11.583  0.5539 -2.2895 -0.6073
11915SOL    HW237187   2.597   0.177  11.658 -1.5758  0.9954  0.4647
11916SOL     OW37188   2.338   0.008  12.361 -0.3258 -0.0943  0.0784
11916SOL    HW137189   2.333   0.096  12.324  0.3417  0.3996  1.1383
11916SOL    HW237190   2.248  -0.013  12.386 -1.0786 -0.9525 -2.8752
11917SOL     OW37191   1.356   6.686  11.590  0.1995 -0.3100 -0.1078
11917SOL    HW137192   1.351   6.655  11.500  0.0656  0.3477 -0.3339
11917SOL    HW237193   1.418   6.759  11.587 -0.3628  0.1890  0.1903
11918SOL     OW37194   1.179   0.341  11.339 -0.1884  0.3883  0.1397
11918SOL    HW137195   1.209   0.254  11.361 -2.1740 -0.5920 -0.7600
11918SOL    HW237196   1.085   0.331  11.322 -0.6278  2.8168  0.6427
11919SOL     OW37197   1.546   7.352   0.342 -0.1803  0.4119  0.3871
11919SOL    HW137198   1.529   7.296   0.418  0.4909  0.2420  0.4166
11919SOL    HW237199   1.569   7.437   0.379  1.7846 -0.1036  0.4499
11920SOL     OW37200   1.768   0.633  11.312 -0.2176  0.9677  0.5304
11920SOL    HW137201   1.743   0.658  11.223 -1.0835  0.0659  0.5027
11920SOL    HW237202   1.688   0.596  11.350  0.6068 -0.3534  1.0463
11921SOL     OW37203   2.740   7.886   0.444  0.0661  0.3652 -0.1734
11921SOL    HW137204   2.814   7.944   0.459  0.4171  0.0303 -0.6236
11921SOL    HW237205   2.722   7.892   0.350 -0.5747  0.5646 -0.0451
11922SOL     OW37206   2.258   6.984   1.701  0.6551 -0.2603  0.0396
11922SOL    HW137207   2.200   7.026   1.638  1.8334 -1.1740 -1.7422
11922SOL    HW237208   2.317   7.053   1.730 -0.9493  0.5626  1.5034
11923SOL     OW37209   2.229   6.731   0.325  0.2920 -0.5628 -0.0051
11923SOL    HW137210   2.228   6.730   0.420  2.5137 -0.6987  0.0844
11923SOL    HW237211   2.322   6.720   0.302 -0.0139  0.7046 -2.1674
11924SOL     OW37212   1.121   0.880  12.232 -0.1425 -0.2132  0.3213
11924SOL    HW137213   1.182   0.855  12.302  1.7356  1.4376 -0.6064
11924SOL    HW237214   1.175   0.931  12.171 -2.3177  0.6497 -0.9885
11925SOL     OW37215   2.184   0.711  12.229 -0.1868  0.0322  0.2347
11925SOL    HW137216   2.254   0.774  12.211 -0.1543  1.1416  3.5874
11925SOL    HW237217   2.208   0.673  12.314 -2.1905 -1.7133  0.0838
11926SOL     OW37218   3.501   1.153  12.281  0.4054  0.5386 -0.2176
11926SOL    HW137219   3.445   1.094  12.331 -2.3704  1.6068 -1.8058
11926SOL    HW237220   3.525   1.222  12.342  1.8657 -1.0045  1.0586
11927SOL     OW37221   1.152   0.387  12.060  0.2730 -0.1290 -0.0594
11927SOL    HW137222   1.115   0.404  11.973  0.0679  1.6112  0.3473
11927SOL    HW237223   1.220   0.322  12.044 -0.4438 -0.6057 -1.3636
11928SOL     OW37224   1.284   7.993   0.056 -0.0943  0.0873  0.4212
11928SOL    HW137225   1.340   7.917   0.038  0.1254  0.3881 -0.1854
11928SOL    HW237226   1.199   7.970   0.018 -0.6310 -0.6880  2.0084
11929SOL     OW37227   3.516   7.659  12.169  0.3294  0.1443 -0.3964
11929SOL    HW137228   3.500   7.584  12.226  0.5285 -0.7266 -1.4570
11929SOL    HW237229   3.450   7.652  12.100 -1.5925  2.6094  0.9932
11930SOL     OW37230   2.454   6.086  11.952  0.1490 -0.0622  0.6057
11930SOL    HW137231   2.378   6.030  11.963 -0.5386  0.2938 -1.9023
11930SOL    HW237232   2.443   6.126  11.866  0.5183  4.0512  2.2357
11931SOL     OW37233   3.310   6.432   0.309 -0.8026  0.4306 -0.3443
11931SOL    HW137234   3.372   6.376   0.262 -0.4832 -0.4144  1.0309
11931SOL    HW237235   3.227   6.420   0.263 -0.3315  0.2607 -1.1758
11932SOL     OW37236   2.824   0.403  11.281 -0.0241  0.2811  0.0945
11932SOL    HW137237   2.826   0.341  11.209  3.6407  1.7161 -1.2737
11932SOL    HW237238   2.802   0.487  11.240  0.6336  0.8539  0.8782
11933SOL     OW37239   3.888   7.818  10.357  0.7238 -0.2017  0.2377
11933SOL    HW137240   3.896   7.909  10.383 -0.4849  0.8073 -2.5042
11933SOL    HW237241   3.970   7.798  10.312 -0.5715  1.0851 -3.0341
11934SOL     OW37242   1.595   6.827  11.034 -0.3631  0.4644  0.4620
11934SOL    HW137243   1.532   6.823  11.106 -0.3128  0.0562  0.4825
11934SOL    HW237244   1.635   6.740  11.032  0.7339  0.9364  0.9262
11935SOL     OW37245   1.656   0.623   0.361 -0.5147 -0.2062  0.1820
11935SOL    HW137246   1.687   0.622   0.271  0.0963 -0.7665  0.3900
11935SOL    HW237247   1.714   0.683   0.406 -1.1637  0.5053  0.0967
11936SOL     OW37248   1.864   1.852   0.174 -0.0042 -0.0923 -0.2873
11936SOL    HW137249   1.859   1.866   0.079 -0.2849 -1.8717 -0.5756
11936SOL    HW237250   1.957   1.833   0.190 -0.1882 -1.2032 -0.4561
11937SOL     OW37251   3.321   5.994   0.045  0.2446 -0.2195 -0.0285
11937SOL    HW137252   3.237   5.971   0.006 -0.0317  0.9478 -0.1476
11937SOL    HW237253   3.306   5.988   0.140  0.3503 -1.1033 -0.0643
11938SOL     OW37254   2.152   0.687   1.533  0.4534 -0.0168  0.4278
11938SOL    HW137255   2.170   0.774   1.566  1.1932 -0.7637  2.0769
11938SOL    HW237256   2.112   0.640   1.606 -1.3780 -0.6400 -0.8839
11939SOL     OW37257   2.576   7.472   0.355 -0.0043  0.4777 -0.2365
11939SOL    HW137258   2.506   7.531   0.384 -0.7682 -0.5398  0.0377
11939SOL    HW237259   2.530   7.399   0.313  0.9420  0.2262 -0.8706
11940SOL     OW37260   3.257   7.841  11.626 -0.1036 -0.2881 -0.1662
11940SOL    HW137261   3.286   7.880  11.544  0.5500 -1.0764 -0.3216
11940SOL    HW237262   3.161   7.843  11.621 -0.0690 -0.2986 -0.9377
11941SOL     OW37263   3.426   7.302   0.765  0.1455 -0.5949 -0.1332
11941SOL    HW137264   3.401   7.211   0.752 -2.1438 -0.4187  2.2214
11941SOL    HW237265   3.371   7.333   0.837  1.1697  2.5353 -0.5002
11942SOL     OW37266   2.378   6.272  12.417 -0.0191  0.3011 -0.2285
11942SOL    HW137267   2.377   6.314  12.503 -3.7744 -0.1637  0.1207
11942SOL    HW237268   2.288   6.240  12.405  1.1289 -2.3485 -3.0357
11943SOL     OW37269   1.266   1.242   0.941 -0.0607  0.2206  0.2399
11943SOL    HW137270   1.208   1.278   0.875 -0.1418  0.9552  0.7098
11943SOL    HW237271   1.314   1.172   0.895 -1.0306 -0.1410 -0.2425
11944SOL     OW37272   2.195   7.365   1.731  0.1634  0.3845  0.0851
11944SOL    HW137273   2.263   7.332   1.673 -0.5471  1.3308 -1.3433
11944SOL    HW237274   2.201   7.309   1.809  1.3114 -0.7624 -0.7789
11945SOL     OW37275   0.548   6.547  12.426  0.7485  0.2705 -0.0685
11945SOL    HW137276   0.476   6.570  12.368  0.1821 -0.6319  0.2525
11945SOL    HW237277   0.573   6.458  12.399 -1.3278 -1.3262  2.7245
11946SOL     OW37278   2.171   1.178  11.029  0.4694 -0.1977  0.3108
11946SOL    HW137279   2.092   1.131  11.055 -1.1675  2.4831  0.5709
11946SOL    HW237280   2.213   1.201  11.112 -0.0058  0.7795  0.2888
11947SOL     OW37281   2.473   0.081   0.156 -0.6864  0.3333  0.3080
11947SOL    HW137282   2.535   0.036   0.099 -0.2599  0.9889  0.2476
11947SOL    HW237283   2.409   0.120   0.096 -1.6548 -1.0129  0.3983
11948SOL     OW37284   3.606   7.388  11.477 -0.4514 -0.5559  0.2979
11948SOL    HW137285   3.647   7.333  11.411 -2.4122 -1.6986 -0.0276
11948SOL    HW237286   3.515   7.396  11.450 -0.5980  1.6076  1.1812
11949SOL     OW37287   1.778   7.246   0.072 -0.2628 -0.0753 -0.0801
11949SOL    HW137288   1.836   7.233   0.146 -0.6709 -0.3311  0.1955
11949SOL    HW237289   1.693   7.216   0.102 -0.9007  1.6974  0.0446
11950SOL     OW37290   2.637   1.561  11.578  0.6933  0.6803  0.0960
11950SOL    HW137291   2.708   1.625  11.574  1.1208  0.2215  0.2896
11950SOL    HW237292   2.581   1.583  11.504  0.7659  1.3651  0.2421
11951SOL     OW37293   3.224   6.441  11.987 -0.0784  0.4010 -0.5607
11951SOL    HW137294   3.254   6.371  12.046  0.2485 -0.2124 -1.4186
11951SOL    HW237295   3.186   6.394  11.912  1.8286  1.0575 -2.0318
11952SOL     OW37296   2.128   7.684  12.353 -0.0545  0.5320 -0.2544
11952SOL    HW137297   2.119   7.733  12.272 -0.0892  0.3748 -0.3465
11952SOL    HW237298   2.220   7.694  12.378 -0.4388  2.0829  0.6567
11953SOL     OW37299   3.069   7.860   0.324  0.2715  0.0873 -0.1615
11953SOL    HW137300   3.056   7.767   0.343  2.0972 -0.2391 -0.4055
11953SOL    HW237301   3.006   7.904   0.381  1.6939 -1.1313  2.5122
11954SOL     OW37302   3.801   0.489   0.751  0.0014 -0.1441  0.0164
11954SOL    HW137303   3.813   0.466   0.843  1.8410 -1.2290 -0.4471
11954SOL    HW237304   3.717   0.448   0.727 -0.6000  0.3239  1.2288
11955SOL     OW37305   2.179   1.521  11.972 -1.0662  0.1146  0.2015
11955SOL    HW137306   2.178   1.447  11.911 -0.1924 -0.1601  0.5095
11955SOL    HW237307   2.247   1.580  11.937 -1.1328  0.3476  0.4584
11956SOL     OW37308   2.249   7.373  12.351 -0.0074 -0.6172  0.0294
11956SOL    HW137309   2.235   7.311  12.423 -0.2773 -0.3134  0.2413
11956SOL    HW237310   2.198   7.450  12.375  1.4891  0.2866  0.5073
11957SOL     OW37311   5.006   1.552   1.383  0.5335  0.1057  0.3624
11957SOL    HW137312   5.010   1.511   1.470 -0.0681 -0.3800  0.1701
11957SOL    HW237313   4.926   1.604   1.384 -0.5057 -1.3736 -0.5030
11958SOL     OW37314   5.292   7.781   0.214  0.1395  0.1933 -0.0613
11958SOL    HW137315   5.305   7.808   0.305  1.8391 -0.4739 -0.0634
11958SOL    HW237316   5.219   7.719   0.218 -0.4404  0.8956  0.6861
11959SOL     OW37317   4.022   0.495  12.194 -0.2233  0.2699 -0.6342
11959SOL    HW137318   3.969   0.415  12.192  1.0646 -0.5985 -1.4063
11959SOL    HW237319   3.989   0.544  12.269 -0.0383 -1.7023  0.8072
11960SOL     OW37320   5.332   0.594   0.463 -0.2279  0.4398 -0.2159
11960SOL    HW137321   5.262   0.599   0.398 -0.1639  1.4391 -0.2221
11960SOL    HW237322   5.393   0.663   0.439  0.0401  0.5187  0.6299
11961SOL     OW37323   4.824   1.097   2.255 -0.1100 -0.1542 -0.1352
11961SOL    HW137324   4.859   1.009   2.243  0.9813  0.1777  0.4979
11961SOL    HW237325   4.755   1.104   2.189  2.9658  0.2289 -3.6395
11962SOL     OW37326   5.211   0.326   1.153  0.0062 -0.2202 -0.3696
11962SOL    HW137327   5.256   0.259   1.102 -0.1230 -2.2013  1.9397
11962SOL    HW237328   5.133   0.348   1.102 -0.2345 -2.2493 -0.9419
11963SOL     OW37329   4.824   7.854   0.470  0.9359 -0.7241 -0.2896
11963SOL    HW137330   4.782   7.779   0.513 -0.5650 -0.4288 -1.1598
11963SOL    HW237331   4.825   7.922   0.536  1.1275 -1.1080  0.1073
11964SOL     OW37332   3.119   0.368   1.678  0.2272 -0.3218  0.2371
11964SOL    HW137333   3.146   0.284   1.716 -0.1338  0.2604  1.8492
11964SOL    HW237334   3.133   0.357   1.584  0.3809 -2.1121  0.4350
11965SOL     OW37335   6.730   1.714   2.505 -0.1079  0.2903 -0.0760
11965SOL    HW137336   6.669   1.788   2.513  3.0781  3.0726  0.4761
11965SOL    HW237337   6.754   1.713   2.413  3.5581  3.4490  0.5957
11966SOL     OW37338   4.686   1.433   2.204 -0.0662  0.0948  0.6316
11966SOL    HW137339   4.739   1.376   2.149  0.8113 -0.8021  2.3064
11966SOL    HW237340   4.600   1.435   2.162  0.2033 -1.5798 -0.0644
11967SOL     OW37341   4.342   0.677   1.176  0.0191  0.4172 -0.3620
11967SOL    HW137342   4.352   0.750   1.114 -0.5271  0.8894  0.0901
11967SOL    HW237343   4.405   0.611   1.147 -2.0859 -0.5502 -3.0977
11968SOL     OW37344   3.348   1.421   0.165  0.1540  0.6198  0.2256
11968SOL    HW137345   3.387   1.336   0.187  1.7157  0.9929 -0.9190
11968SOL    HW237346   3.288   1.401   0.093  1.6068  0.6530 -1.0382
11969SOL     OW37347   5.185   2.774   0.981  0.1080  0.4119 -0.2440
11969SOL    HW137348   5.121   2.717   1.025 -0.2838  2.0278  1.3868
11969SOL    HW237349   5.268   2.754   1.025  0.3251 -0.1449 -0.8905
11970SOL     OW37350   3.468   7.414   0.101  0.1108  0.4233 -0.5570
11970SOL    HW137351   3.550   7.458   0.121  1.3671 -1.5471 -1.0465
11970SOL    HW237352   3.454   7.429   0.008 -0.7037  1.6562 -0.2640
11971SOL     OW37353   3.516   1.361  12.457  0.0846  0.5405  0.0911
11971SOL    HW137354   3.429   1.397  12.473  0.6040  1.7412  0.3399
11971SOL    HW237355   3.547   1.333  12.543 -0.0027  0.2433  0.0245
11972SOL     OW37356   4.679   7.674   0.675  0.1396  0.2679  0.5647
11972SOL    HW137357   4.667   7.584   0.645  1.0748 -0.2215  1.5881
11972SOL    HW237358   4.598   7.696   0.720 -1.1967  0.9303 -1.9678
11973SOL     OW37359   3.043   0.295   0.426 -0.3771  0.1973 -0.5441
11973SOL    HW137360   3.027   0.324   0.515 -0.8303  0.1941 -0.6209
11973SOL    HW237361   3.121   0.344   0.398 -1.1823  1.4250 -0.7016
11974SOL     OW37362   4.406   0.127   0.348  0.3309  1.1401  0.1918
11974SOL    HW137363   4.431   0.135   0.440 -0.7678 -2.8562  1.0136
11974SOL    HW237364   4.489   0.113   0.302  0.6648 -1.2000  1.3219
11975SOL     OW37365   3.898   2.119   0.194 -0.2169 -0.4358 -0.2492
11975SOL    HW137366   3.938   2.072   0.267  0.2658 -1.6626 -1.2536
11975SOL    HW237367   3.845   2.052   0.150  0.1685  0.0468 -1.4946
11976SOL     OW37368   5.197   6.883   1.009 -0.5615 -0.0102  0.4062
11976SOL    HW137369   5.109   6.876   0.972 -0.2159  0.5736 -0.5556
11976SOL    HW237370   5.242   6.946   0.953  0.1533  0.5033  1.5220
11977SOL     OW37371   6.714   1.289   1.758 -0.3583  0.5929 -0.1651
11977SOL    HW137372   6.650   1.346   1.801  1.3407  1.3981  1.4174
11977SOL    HW237373   6.667   1.253   1.683 -2.0078  2.8010 -0.2927
11978SOL     OW37374   3.262   1.112   1.048  0.1420  0.6140  0.3652
11978SOL    HW137375   3.204   1.101   0.973  0.9367 -1.3216 -0.0230
11978SOL    HW237376   3.216   1.070   1.121 -0.1631  1.5715  0.7447
11979SOL     OW37377   4.811   7.886   1.026 -0.2502 -0.0568  0.0363
11979SOL    HW137378   4.817   7.791   1.020 -1.3327 -0.2107  0.9761
11979SOL    HW237379   4.818   7.905   1.120  1.5691  0.9457 -0.2560
11980SOL     OW37380   4.749   0.254   1.397  0.5026  0.1924  0.1552
11980SOL    HW137381   4.739   0.344   1.429  0.9085  0.3223 -0.0854
11980SOL    HW237382   4.659   0.224   1.383  0.3736  0.6717 -0.0730
11981SOL     OW37383   3.284   6.914   1.644  1.0761 -0.1829 -0.4197
11981SOL    HW137384   3.305   6.829   1.607  1.7298  0.1519 -0.8576
11981SOL    HW237385   3.357   6.970   1.616  0.9866  0.3569  0.4059
11982SOL     OW37386   4.098   7.535   1.249  0.4858  0.3788  0.3688
11982SOL    HW137387   4.156   7.609   1.231  0.8133  0.0037 -0.1800
11982SOL    HW237388   4.011   7.573   1.253  0.7707  0.9664  1.2705
11983SOL     OW37389   3.499   1.173   0.158  0.1536  0.3858  0.4577
11983SOL    HW137390   3.579   1.148   0.110  0.4188 -0.9541  1.5256
11983SOL    HW237391   3.431   1.115   0.123  0.2014 -0.1360  1.2046
11984SOL     OW37392   4.839   3.014   1.277  0.6066  0.2349  0.2791
11984SOL    HW137393   4.796   3.097   1.299 -2.8153 -0.3921 -3.0126
11984SOL    HW237394   4.794   2.949   1.331  0.3959  0.0729 -0.0880
11985SOL     OW37395   2.609   1.186   0.943  0.3139  0.0750  0.1965
11985SOL    HW137396   2.559   1.195   1.024  0.1689 -0.6463  0.1956
11985SOL    HW237397   2.552   1.136   0.884  0.8477 -0.3639  0.0363
11986SOL     OW37398   7.071   0.593   0.157  0.4713 -0.3334 -0.0089
11986SOL    HW137399   7.081   0.590   0.062 -0.3033  0.0943 -0.1207
11986SOL    HW237400   7.043   0.505   0.181  1.2328 -0.6055 -0.0971
11987SOL     OW37401   6.441   0.789   1.064 -0.7032 -0.0395  0.1232
11987SOL    HW137402   6.348   0.793   1.088 -0.2381  0.1124  2.0169
11987SOL    HW237403   6.470   0.880   1.063 -0.8674  0.0404 -1.8881
11988SOL     OW37404   2.840   0.931   0.306 -0.5173 -0.5845  0.0517
11988SOL    HW137405   2.817   0.841   0.331 -1.1525 -0.0777  1.3581
11988SOL    HW237406   2.935   0.936   0.321 -0.4983 -0.9972  0.0987
11989SOL     OW37407   3.929   1.328   0.974  0.3500 -0.0286  0.7404
11989SOL    HW137408   3.836   1.329   0.994 -0.1000 -0.3420 -1.1357
11989SOL    HW237409   3.956   1.237   0.988 -0.5403 -0.8619 -2.2377
11990SOL     OW37410   3.895   7.325  11.647  0.1151 -0.5659  0.3058
11990SOL    HW137411   3.980   7.337  11.605  0.6544 -1.4079  1.1196
11990SOL    HW237412   3.831   7.342  11.578  0.8618  1.8744  0.1062
11991SOL     OW37413   5.656   0.279   2.043 -0.1712  0.0095  0.0531
11991SOL    HW137414   5.674   0.288   2.137 -1.8231 -0.3177  0.4395
11991SOL    HW237415   5.571   0.235   2.040  0.4400 -1.1373 -1.6191
11992SOL     OW37416   4.692   7.692   1.825  0.2756 -0.0663  0.1417
11992SOL    HW137417   4.669   7.655   1.739  0.6203  1.1598 -0.5022
11992SOL    HW237418   4.787   7.701   1.822  0.1420  1.5158 -0.0086
11993SOL     OW37419   6.373   0.710   2.987 -0.5467  0.0783  0.6385
11993SOL    HW137420   6.414   0.639   3.036  0.8691  0.1725 -0.3648
11993SOL    HW237421   6.280   0.688   2.986  0.0888 -3.2286 -1.8482
11994SOL     OW37422   5.198   0.556   2.012  0.1544 -0.0503 -0.0824
11994SOL    HW137423   5.201   0.556   2.108 -2.8561 -0.5751  0.0948
11994SOL    HW237424   5.222   0.466   1.989 -2.2414 -0.9145  0.4586
11995SOL     OW37425   5.181   7.477  12.198  0.3750  0.0351 -0.1629
11995SOL    HW137426   5.238   7.449  12.270 -0.6693  2.2677  1.6405
11995SOL    HW237427   5.134   7.397  12.172 -0.0677 -0.6526  2.4569
11996SOL     OW37428   2.697   2.456  11.948  0.6663 -0.2390  0.2838
11996SOL    HW137429   2.753   2.532  11.961  1.1173 -0.2493 -1.3935
11996SOL    HW237430   2.652   2.445  12.031  3.1839 -0.2670  1.7340
11997SOL     OW37431   2.444   7.889   1.095 -0.2028  0.0726 -0.5272
11997SOL    HW137432   2.415   7.980   1.085 -0.4473 -0.0879 -1.2688
11997SOL    HW237433   2.514   7.878   1.031  0.5063  0.0120  0.2280
11998SOL     OW37434   4.836   0.043   0.083  0.7663 -0.1475  0.1419
11998SOL    HW137435   4.887   0.088   0.150  1.4169  0.3133 -0.6381
11998SOL    HW237436   4.858   0.088   0.001 -1.1169  0.2529 -0.2002
11999SOL     OW37437   3.952   7.627   0.198  0.5589 -0.6669 -0.6652
11999SOL    HW137438   4.042   7.601   0.216  0.7110  0.0695 -0.3159
11999SOL    HW237439   3.957   7.721   0.181 -0.0307 -0.7630 -1.4752
12000SOL     OW37440   3.380   0.212   1.425  0.4568  0.5250  0.0200
12000SOL    HW137441   3.450   0.200   1.489 -0.1726 -0.2336  0.5908
12000SOL    HW237442   3.299   0.192   1.473 -0.0275 -0.1213 -1.0168
12001SOL     OW37443   3.718   0.274   1.611  0.7152 -0.2446 -0.4699
12001SOL    HW137444   3.668   0.194   1.628 -1.8113  1.4410  0.7009
12001SOL    HW237445   3.724   0.318   1.696  1.6590  1.0335 -1.1526
12002SOL     OW37446   4.380   1.214  12.115  0.6176 -0.1044 -0.7426
12002SOL    HW137447   4.397   1.306  12.131  0.4172  0.3055 -2.5795
12002SOL    HW237448   4.292   1.212  12.076 -0.8045 -1.4489  2.1819
12003SOL     OW37449   3.587   3.059   0.955 -0.0620 -0.2910 -0.1810
12003SOL    HW137450   3.567   3.145   0.918 -0.2198 -0.4786 -0.5345
12003SOL    HW237451   3.537   2.998   0.902  1.5965 -0.7995 -1.2523
12004SOL     OW37452   5.996   7.770   1.983  0.3650  0.4627  0.4271
12004SOL    HW137453   6.083   7.803   1.961  0.8801  0.0227  1.7116
12004SOL    HW237454   5.943   7.849   1.993  1.3026  0.9089  2.3176
12005SOL     OW37455   4.555   1.346   0.737 -0.1925 -0.2459 -0.2222
12005SOL    HW137456   4.514   1.361   0.822 -0.3494 -1.0249 -0.1522
12005SOL    HW237457   4.486   1.366   0.673 -0.5897 -1.2496 -0.1133
12006SOL     OW37458   2.275   0.059  10.812 -0.5931 -0.4422 -0.0339
12006SOL    HW137459   2.337  -0.009  10.786 -1.1391 -1.0272  0.1724
12006SOL    HW237460   2.302   0.084  10.901 -1.0658 -1.1926  0.3287
12007SOL     OW37461   5.597   7.735   0.464 -0.3679 -0.0434  0.2549
12007SOL    HW137462   5.510   7.768   0.486 -0.0238  0.5137  0.8233
12007SOL    HW237463   5.653   7.767   0.535  0.1824 -0.9471  0.2398
12008SOL     OW37464   4.439   0.563   2.200 -0.1811  0.2687  0.3731
12008SOL    HW137465   4.436   0.631   2.269  3.2886  1.1750 -0.1881
12008SOL    HW237466   4.423   0.481   2.247  0.0846  1.0502  1.9093
12009SOL     OW37467   7.870   2.189  12.014 -0.1143 -0.2863 -0.2887
12009SOL    HW137468   7.861   2.240  12.095 -3.3358  0.0577 -0.7243
12009SOL    HW237469   7.816   2.111  12.029  1.6892 -1.7628 -1.0690
12010SOL     OW37470   4.018   0.145   1.190 -0.2929 -0.3976  0.0902
12010SOL    HW137471   3.924   0.146   1.206  0.0044  0.6300  1.9894
12010SOL    HW237472   4.040   0.235   1.165 -0.0906 -1.0862 -2.5738
12011SOL     OW37473   4.439   7.855  12.473  0.0086 -0.0987  0.3398
12011SOL    HW137474   4.483   7.932  12.507  0.2914  0.4107 -1.0974
12011SOL    HW237475   4.490   7.830  12.396 -0.6522 -1.1314  0.2093
12012SOL     OW37476   4.719   1.558   0.196  0.2353 -0.3267  0.1502
12012SOL    HW137477   4.746   1.488   0.137 -1.0957 -1.9023  1.3061
12012SOL    HW237478   4.800   1.604   0.218  1.5284 -2.8811  1.0551
12013SOL     OW37479   3.507   0.366  12.428 -0.2596  0.2264  0.5182
12013SOL    HW137480   3.439   0.365  12.361  0.4878 -0.9418 -0.2406
12013SOL    HW237481   3.570   0.431  12.398 -0.7348  0.8996  0.9396
12014SOL     OW37482   4.344   1.007   1.883  0.7000 -0.6698  0.0214
12014SOL    HW137483   4.346   1.002   1.788 -0.3021  2.9264 -0.3330
12014SOL    HW237484   4.434   0.992   1.910  1.2394 -0.5356 -1.6127
12015SOL     OW37485   3.698   0.461   0.408 -0.1783  0.3589  0.3325
12015SOL    HW137486   3.618   0.413   0.429 -0.8006  1.0203 -0.4441
12015SOL    HW237487   3.767   0.413   0.454 -0.5483 -2.1121 -1.4933
12016SOL     OW37488   5.740   0.927   2.201 -0.1754  0.6641  0.0719
12016SOL    HW137489   5.646   0.927   2.222  0.0768  0.4925  1.2600
12016SOL    HW237490   5.782   0.894   2.280  0.8836  0.5551 -0.5225
12017SOL     OW37491   3.361   0.863  12.130  0.1121  0.2756  0.1279
12017SOL    HW137492   3.288   0.874  12.190  0.4507 -1.4718  0.9024
12017SOL    HW237493   3.322   0.822  12.052 -0.3374  2.5884 -0.9562
12018SOL     OW37494   4.584   1.054   2.151 -0.1998 -1.0002  0.2221
12018SOL    HW137495   4.534   1.087   2.225  1.5147 -0.6106  1.2424
12018SOL    HW237496   4.545   0.968   2.133 -0.5400 -1.1760  1.6621
12019SOL     OW37497   4.567   0.909   1.044  0.2019  0.1407  0.2739
12019SOL    HW137498   4.474   0.931   1.043 -0.1512 -1.2543 -0.6892
12019SOL    HW237499   4.606   0.972   0.983 -0.1336  0.6408  0.5685
12020SOL     OW37500   4.149   7.295   1.437  0.0735 -0.5410  0.4152
12020SOL    HW137501   4.210   7.241   1.388  0.5472  0.8396 -0.5616
12020SOL    HW237502   4.123   7.364   1.377 -1.4447 -0.3427  1.2432
12021SOL     OW37503   4.959   2.383   2.223 -0.0306  0.2557 -0.4439
12021SOL    HW137504   4.999   2.297   2.212  0.3563  0.3684  0.0388
12021SOL    HW237505   4.986   2.433   2.146  0.2574  0.1357 -0.4220
12022SOL     OW37506   5.399   0.787  12.175 -0.0761  0.5417  0.1207
12022SOL    HW137507   5.373   0.872  12.138 -1.7180  0.4171  0.8933
12022SOL    HW237508   5.317   0.739  12.184  0.8471 -1.2036 -0.4214
12023SOL     OW37509   5.793   1.689  12.430  0.0890 -0.2006  0.1560
12023SOL    HW137510   5.732   1.638  12.377 -1.0179  0.6825  0.5388
12023SOL    HW237511   5.789   1.649  12.516 -2.2798  1.6249  0.9974
12024SOL     OW37512   1.641   7.806   0.885 -0.1224  0.3566 -0.2002
12024SOL    HW137513   1.551   7.783   0.862  0.3566 -2.1635  0.1848
12024SOL    HW237514   1.685   7.815   0.800 -0.3326 -0.1759 -0.3669
12025SOL     OW37515   4.709   0.418   0.138 -0.0482  0.0826  0.0077
12025SOL    HW137516   4.620   0.405   0.108 -0.5600  1.0022  1.0324
12025SOL    HW237517   4.714   0.372   0.222 -0.3251  1.9641  1.1210
12026SOL     OW37518   4.898   2.477   2.562 -0.7039  0.3425 -0.2063
12026SOL    HW137519   4.889   2.571   2.574 -0.0547  0.5993 -1.5380
12026SOL    HW237520   4.992   2.462   2.559 -0.8036 -0.3266 -0.1822
12027SOL     OW37521   4.303   0.734   0.229 -0.0586 -0.6588  0.3880
12027SOL    HW137522   4.318   0.644   0.256  1.2210 -0.7715 -0.6084
12027SOL    HW237523   4.340   0.739   0.141 -1.6791  0.3919 -0.2765
12028SOL     OW37524   1.767   2.336   0.014  0.4668 -0.2888  0.0128
12028SOL    HW137525   1.775   2.292  -0.070  0.2242  0.7537 -0.5791
12028SOL    HW237526   1.850   2.320   0.059  1.2273  0.4651 -1.0888
12029SOL     OW37527   4.292   2.185   1.188  0.3836 -0.0422  0.0668
12029SOL    HW137528   4.239   2.217   1.115 -1.8551 -2.4288  0.5119
12029SOL    HW237529   4.266   2.239   1.262 -0.6457 -0.5050  0.0456
12030SOL     OW37530   4.300   6.754   0.142  0.3255 -0.3324  0.2041
12030SOL    HW137531   4.376   6.710   0.181 -0.3335 -0.5047  1.3062
12030SOL    HW237532   4.301   6.724   0.051  2.9310  1.4649 -0.4948
12031SOL     OW37533   2.984   0.524   0.613 -0.1105  0.6896 -0.3569
12031SOL    HW137534   2.992   0.567   0.698  1.2583 -0.7409  0.2940
12031SOL    HW237535   2.924   0.451   0.628 -0.0178  0.5461 -0.6636
12032SOL     OW37536   4.210   2.524   2.965  0.3311  0.3195  0.1152
12032SOL    HW137537   4.243   2.551   2.880  1.0821 -1.6212 -0.2702
12032SOL    HW237538   4.288   2.514   3.020  0.0977 -0.7781  0.2831
12033SOL     OW37539   3.439   1.982   0.882  0.0144 -0.0203 -0.7405
12033SOL    HW137540   3.465   1.982   0.790 -2.0341 -1.4144 -1.4116
12033SOL    HW237541   3.368   1.918   0.886 -0.8857  1.0176  1.5563
12034SOL     OW37542   6.757   7.819   1.421 -0.0180  0.2517 -0.1183
12034SOL    HW137543   6.697   7.781   1.356 -0.0789  2.8425 -1.7528
12034SOL    HW237544   6.826   7.859   1.369  1.8982 -0.5989  1.6429
12035SOL     OW37545   4.406   7.564  12.162 -0.4447  0.3232 -0.1481
12035SOL    HW137546   4.475   7.631  12.161 -2.0231  2.0198 -1.0035
12035SOL    HW237547   4.412   7.522  12.076  0.4373 -0.5787  0.3277
12036SOL     OW37548   5.386   0.615   1.183 -0.2504  0.1772 -0.4294
12036SOL    HW137549   5.320   0.625   1.113  1.8444 -1.8691 -2.9177
12036SOL    HW237550   5.361   0.534   1.227 -0.1780  0.1455 -0.4473
12037SOL     OW37551   5.825   7.500  12.438  0.4754 -0.0689 -0.3404
12037SOL    HW137552   5.789   7.426  12.488 -1.6194  0.1821 -1.3629
12037SOL    HW237553   5.786   7.577  12.480  1.3082  0.3581 -0.3402
12038SOL     OW37554   3.175   0.820  11.438  0.5438  0.0982  0.1109
12038SOL    HW137555   3.251   0.839  11.382  1.3682 -0.4384  1.0135
12038SOL    HW237556   3.121   0.762  11.385 -1.4567  3.7332 -2.2665
12039SOL     OW37557   4.637   2.398   0.553  0.3277  0.0547  0.1438
12039SOL    HW137558   4.670   2.314   0.583  1.9680  0.2620 -0.9999
12039SOL    HW237559   4.703   2.461   0.582  0.5156  0.5950 -1.3746
12040SOL     OW37560   4.124   6.564  11.567  0.4293 -0.1593 -0.3204
12040SOL    HW137561   4.125   6.610  11.483 -0.6156 -0.4862 -0.5282
12040SOL    HW237562   4.046   6.597  11.611 -0.5989 -2.0339 -0.6550
12041SOL     OW37563   2.766   1.467   1.191 -0.0555 -0.1498 -0.0366
12041SOL    HW137564   2.861   1.465   1.179  0.1026  0.3353  1.0566
12041SOL    HW237565   2.743   1.376   1.210  0.2846 -0.1421  0.4164
12042SOL     OW37566   4.650   7.192   0.574  1.1437 -0.3604 -0.0776
12042SOL    HW137567   4.603   7.154   0.649 -0.4121 -0.6913 -1.1718
12042SOL    HW237568   4.651   7.123   0.508 -0.7480  1.0297 -1.6935
12043SOL     OW37569   3.767   0.680   1.346  0.0592 -0.2347  0.0146
12043SOL    HW137570   3.699   0.707   1.408  0.8845 -0.3577  1.0101
12043SOL    HW237571   3.776   0.586   1.360  0.0767 -0.3125 -0.4899
12044SOL     OW37572   5.316   1.364   2.159 -0.2433  0.1076 -0.0337
12044SOL    HW137573   5.224   1.375   2.183  0.2597 -0.4343  2.3307
12044SOL    HW237574   5.346   1.291   2.212  0.8329 -1.7778 -2.9634
12045SOL     OW37575   5.835   7.885  12.339  0.3855  0.1299 -0.5250
12045SOL    HW137576   5.901   7.932  12.390  0.4065 -0.6545  0.1937
12045SOL    HW237577   5.783   7.839  12.405  0.9035 -1.5425 -1.2420
12046SOL     OW37578   6.864   0.354   1.237 -0.2229  0.1856  0.2103
12046SOL    HW137579   6.934   0.320   1.182 -1.2468  0.9884 -1.6707
12046SOL    HW237580   6.910   0.396   1.310  1.2316  0.1189 -0.6197
12047SOL     OW37581   5.049   0.926   0.605 -0.2724  0.5266  0.3787
12047SOL    HW137582   4.964   0.970   0.607  1.3432  3.9284  0.1807
12047SOL    HW237583   5.052   0.885   0.518 -0.3158  3.6666 -1.2598
12048SOL     OW37584   5.243   2.453   1.057 -0.2894 -0.0411  0.7165
12048SOL    HW137585   5.205   2.510   1.124  0.9054 -0.1916  1.5655
12048SOL    HW237586   5.234   2.365   1.093 -0.8650 -0.2742  0.0384
12049SOL     OW37587   3.778   7.810   0.956  0.0688  0.8983  0.0081
12049SOL    HW137588   3.831   7.778   1.029  0.9017  1.9397 -0.1073
12049SOL    HW237589   3.843   7.836   0.890 -0.5836  2.1748 -0.1532
12050SOL     OW37590   2.918   0.148   2.095 -0.8342  0.6305 -0.0174
12050SOL    HW137591   2.872   0.184   2.019 -2.5731 -0.5842  0.4142
12050SOL    HW237592   2.898   0.055   2.094  0.1829  0.3662  1.2142
12051SOL     OW37593   4.863   7.019   0.837  0.5252  0.4013 -0.0009
12051SOL    HW137594   4.877   6.977   0.752  2.0051 -0.7089  0.7506
12051SOL    HW237595   4.776   6.991   0.864  0.3877  0.0784 -0.7573
12052SOL     OW37596   4.962   1.230   1.338 -0.1891 -0.3277 -0.5401
12052SOL    HW137597   5.054   1.256   1.343  0.0027 -0.6594 -1.9260
12052SOL    HW237598   4.948   1.209   1.246 -1.7913  0.1906 -0.4461
12053SOL     OW37599   2.105   1.031   0.227 -0.9256 -0.3706  0.0400
12053SOL    HW137600   2.132   1.034   0.135 -0.4908  2.5268  0.1700
12053SOL    HW237601   2.184   1.006   0.274 -1.1839 -2.0104 -0.3284
12054SOL     OW37602   2.807   2.555   1.659  0.5146 -0.1141  0.3768
12054SOL    HW137603   2.723   2.509   1.665 -0.5459  1.8081  1.3752
12054SOL    HW237604   2.800   2.606   1.578  0.4625  0.4736  0.7441
12055SOL     OW37605   4.786   0.991  10.481 -0.1097 -0.1049 -0.4082
12055SOL    HW137606   4.858   0.983  10.418 -0.2713  0.8077 -0.7303
12055SOL    HW237607   4.757   0.902  10.497  2.0006 -0.6557  0.7788
12056SOL     OW37608   4.913   1.183   0.332 -0.2760  0.4672  0.0527
12056SOL    HW137609   4.863   1.165   0.411 -3.0169  0.7178 -1.4683
12056SOL    HW237610   4.930   1.277   0.335  0.8882  0.2379  0.9862
12057SOL     OW37611   4.712   7.712  12.374 -0.0584  0.5524 -0.1090
12057SOL    HW137612   4.664   7.706  12.291 -1.0590  0.7616  0.4318
12057SOL    HW237613   4.801   7.686  12.353  0.1946  2.5098 -1.6767
12058SOL     OW37614   2.704   2.157   1.022  0.0754 -0.2758 -0.4299
12058SOL    HW137615   2.745   2.148   1.108 -0.2560 -0.8038 -0.3235
12058SOL    HW237616   2.776   2.180   0.964  0.2556  0.3733  0.0373
12059SOL     OW37617   3.284   1.733   0.967  0.0621 -0.0339  0.0670
12059SOL    HW137618   3.339   1.654   0.968  0.2583  0.0909 -0.4546
12059SOL    HW237619   3.299   1.774   1.052  1.8268  0.7178 -0.5548
12060SOL     OW37620   6.067   1.712   1.633  0.1427  0.2931 -0.2028
12060SOL    HW137621   6.018   1.704   1.715  1.0066 -0.7163  0.2255
12060SOL    HW237622   6.135   1.645   1.638  0.8814  0.9225 -1.2784
12061SOL     OW37623   3.985   0.325   0.036 -0.1153  0.2058  0.2662
12061SOL    HW137624   4.038   0.258  -0.006  0.4352  1.3622 -0.9580
12061SOL    HW237625   4.037   0.352   0.112  0.5255  0.5235 -0.2756
12062SOL     OW37626   4.195   6.546   2.680 -0.1090 -0.5316 -0.1006
12062SOL    HW137627   4.272   6.505   2.718 -0.3617 -1.5474 -0.6588
12062SOL    HW237628   4.133   6.475   2.667 -0.8054  0.1268 -0.4998
12063SOL     OW37629   5.588   1.442   0.677 -0.0110  0.1616 -0.4245
12063SOL    HW137630   5.631   1.409   0.756 -1.6172  1.1562  0.9332
12063SOL    HW237631   5.632   1.397   0.605  0.9880 -1.3755  1.0713
12064SOL     OW37632   3.705   7.321   1.923  0.1547 -0.8177 -0.2425
12064SOL    HW137633   3.799   7.300   1.924  0.4441  0.4433 -0.0480
12064SOL    HW237634   3.662   7.235   1.917  1.2369 -1.6381  2.4403
12065SOL     OW37635   4.599   0.274  11.592  0.2884  0.2246 -0.0990
12065SOL    HW137636   4.533   0.315  11.537 -2.3392 -0.4616  2.3289
12065SOL    HW237637   4.595   0.181  11.568  0.2365  0.1511  0.1998
12066SOL     OW37638   4.718   1.356   1.328  0.0430 -0.4657 -0.5708
12066SOL    HW137639   4.702   1.424   1.393 -1.8337 -2.4539  1.2175
12066SOL    HW237640   4.807   1.373   1.296 -0.7805  3.5638 -1.2883
12067SOL     OW37641   3.774   0.996   0.475  0.0324  0.2044  0.2939
12067SOL    HW137642   3.784   1.090   0.490 -0.7757  0.5837 -1.4036
12067SOL    HW237643   3.796   0.983   0.383 -2.6461 -0.7928 -0.2966
12068SOL     OW37644   5.275   6.646   0.881 -0.1162 -0.2470  0.0312
12068SOL    HW137645   5.327   6.578   0.924 -0.7046 -0.4695  0.4061
12068SOL    HW237646   5.258   6.710   0.950 -1.1075 -0.6310  0.1518
12069SOL     OW37647   6.603   0.541   3.473  0.3004  0.4801  0.2544
12069SOL    HW137648   6.609   0.446   3.484  1.9197  0.6468  1.2251
12069SOL    HW237649   6.535   0.569   3.534 -0.0819 -0.0367  0.0668
12070SOL     OW37650   4.185   1.487   1.071 -0.6823  0.0507 -0.5857
12070SOL    HW137651   4.108   1.502   1.125 -0.2829 -1.9367  0.6216
12070SOL    HW237652   4.159   1.417   1.011 -0.0514 -0.1584 -0.6230
12071SOL     OW37653   6.314   0.740  12.095 -0.2191 -0.0024 -0.4563
12071SOL    HW137654   6.286   0.776  12.011 -0.7677 -1.1310 -0.7872
12071SOL    HW237655   6.253   0.776  12.159  0.0588  0.6831 -0.5738
12072SOL     OW37656   4.515   7.880   1.354  0.1871  0.0355 -0.1016
12072SOL    HW137657   4.510   7.903   1.446 -1.1216 -0.2360 -0.0905
12072SOL    HW237658   4.603   7.845   1.342  0.2692 -0.1903  1.1019
12073SOL     OW37659   4.264   1.492   2.685  0.2738  0.5183 -0.5221
12073SOL    HW137660   4.171   1.484   2.707  0.5799 -0.9269  0.3658
12073SOL    HW237661   4.306   1.516   2.768  0.8451 -0.1013 -0.6292
12074SOL     OW37662   5.530   2.492   2.428 -0.2418 -0.2285  0.5841
12074SOL    HW137663   5.467   2.549   2.384  0.1124 -0.0373  0.3124
12074SOL    HW237664   5.590   2.552   2.472  1.9969 -0.1560 -2.1869
12075SOL     OW37665   4.116   7.809  12.040 -0.0646  0.7903  0.6500
12075SOL    HW137666   4.168   7.760  11.976  0.6631  2.2580  0.0847
12075SOL    HW237667   4.152   7.784  12.125  0.7049  0.8113  0.3323
12076SOL     OW37668   3.853   0.401   1.382 -0.0453 -0.3989 -0.0110
12076SOL    HW137669   3.872   0.328   1.323 -0.3276 -1.4112  1.1279
12076SOL    HW237670   3.776   0.373   1.432 -2.6486  2.2073 -2.1677
12077SOL     OW37671   3.294   0.779   1.468 -0.0627  0.7909 -0.3862
12077SOL    HW137672   3.245   0.813   1.393 -0.5868  1.9796  0.4485
12077SOL    HW237673   3.226   0.750   1.529  0.3561 -2.1861 -1.1724
12078SOL     OW37674   4.177   0.148  12.445  0.2113 -0.5485 -0.1054
12078SOL    HW137675   4.245   0.213  12.428 -1.0269  0.4237 -1.7232
12078SOL    HW237676   4.197   0.113  12.532  1.1534  1.7130  0.6530
12079SOL     OW37677   7.476   0.778   4.098  0.2965 -0.1438  0.4993
12079SOL    HW137678   7.431   0.792   4.015 -0.0039  1.1957  0.8553
12079SOL    HW237679   7.459   0.686   4.120  0.5571 -0.5773 -1.0042
12080SOL     OW37680   5.808   0.860   0.495  0.3824  0.0010  0.0191
12080SOL    HW137681   5.751   0.923   0.540  1.2305  0.9308 -0.1583
12080SOL    HW237682   5.848   0.810   0.565  1.5846  1.3418  0.3329
12081SOL     OW37683   3.740   2.555   1.275  0.3185 -0.0245  0.0029
12081SOL    HW137684   3.830   2.580   1.254  0.3113 -1.0377 -1.3669
12081SOL    HW237685   3.699   2.637   1.302  1.7736  0.3618  1.1801
12082SOL     OW37686   5.323   1.922   0.872 -0.4413 -0.2638  0.8624
12082SOL    HW137687   5.251   1.904   0.812  0.1878 -1.1213  0.3435
12082SOL    HW237688   5.343   1.837   0.912 -0.9956  0.3320  2.4763
12083SOL     OW37689   4.909   7.703   1.488 -0.5365 -0.1523  0.3181
12083SOL    HW137690   4.908   7.677   1.580 -0.9566  0.5993  0.5405
12083SOL    HW237691   5.000   7.692   1.460 -0.7278 -2.0055  0.3279
12084SOL     OW37692   2.364   1.371   1.626 -0.3849  0.3739 -0.4687
12084SOL    HW137693   2.362   1.275   1.630 -2.0366  0.4052  0.0107
12084SOL    HW237694   2.395   1.391   1.537 -0.3634 -0.5968 -0.6904
12085SOL     OW37695   4.923   0.067   1.499 -0.2240  0.1313 -0.3671
12085SOL    HW137696   4.890   0.056   1.588  0.1990  0.4967 -0.1582
12085SOL    HW237697   4.860   0.125   1.456  0.1326  0.8334  0.0309
12086SOL     OW37698   5.453   1.677   0.921  0.2140 -0.0087 -0.3727
12086SOL    HW137699   5.474   1.597   0.969 -0.9889 -0.6195 -0.8152
12086SOL    HW237700   5.525   1.688   0.859 -0.0979 -1.3372 -1.0064
12087SOL     OW37701   4.667   6.767  11.633 -0.4258 -0.4309  0.1017
12087SOL    HW137702   4.576   6.793  11.620 -0.0518  1.5011  1.0802
12087SOL    HW237703   4.714   6.848  11.652  1.5212 -1.3728 -0.3734
12088SOL     OW37704   5.860   0.068  12.146 -0.1452 -0.2796  0.0399
12088SOL    HW137705   5.937   0.058  12.091 -0.0013  0.4922  0.0901
12088SOL    HW237706   5.877   0.012  12.222  1.2425  1.2733  0.9628
12089SOL     OW37707   3.592   0.691   2.343 -0.6926 -0.0699  0.0228
12089SOL    HW137708   3.680   0.659   2.363  0.0148  2.2303  0.9341
12089SOL    HW237709   3.536   0.613   2.350  0.8593 -1.0981  2.1487
12090SOL     OW37710   3.503   7.544   0.659  0.1885 -0.2738 -0.5230
12090SOL    HW137711   3.435   7.569   0.596 -0.7962  3.0169  1.5530
12090SOL    HW237712   3.470   7.463   0.699 -0.7211 -0.6792 -2.0145
12091SOL     OW37713   5.145   2.009   3.266 -0.1715 -0.4943  0.3200
12091SOL    HW137714   5.094   2.071   3.318  0.4880 -0.7676  1.3108
12091SOL    HW237715   5.143   1.928   3.317  1.1507 -0.5457  0.3193
12092SOL     OW37716   3.357   6.984  11.782  0.1127 -0.1336 -0.1088
12092SOL    HW137717   3.374   6.890  11.770  0.6326  0.0430 -0.7983
12092SOL    HW237718   3.282   7.002  11.725 -0.4343 -0.2636  0.5523
12093SOL     OW37719   4.718   1.501   0.938 -0.1164 -0.0066  0.4178
12093SOL    HW137720   4.720   1.566   0.868  0.3990 -1.1338 -0.6529
12093SOL    HW237721   4.789   1.526   0.997  1.0228 -0.3809 -0.7488
12094SOL     OW37722   5.012   7.972   0.858 -0.2013  0.5052 -0.3688
12094SOL    HW137723   4.969   8.047   0.817 -0.7521 -1.2266 -3.2601
12094SOL    HW237724   4.945   7.933   0.914 -0.4008  1.3012 -0.0463
12095SOL     OW37725   5.211   1.151   0.633  0.4952  0.5497  0.0774
12095SOL    HW137726   5.301   1.142   0.602  0.7510  3.0125 -0.1395
12095SOL    HW237727   5.168   1.069   0.609  2.2285  0.0095 -1.3829
12096SOL     OW37728   5.700   1.312   1.255  0.0700 -0.2715  0.2105
12096SOL    HW137729   5.789   1.311   1.220 -0.2218  1.3900 -0.6521
12096SOL    HW237730   5.711   1.330   1.348  0.6295  0.0528  0.0861
12097SOL     OW37731   3.257   0.194   0.645  0.1737 -0.6109  0.3492
12097SOL    HW137732   3.239   0.112   0.690 -2.3967 -0.9039 -1.0005
12097SOL    HW237733   3.270   0.258   0.715 -0.6510 -1.6121  1.4550
12098SOL     OW37734   1.302   7.979   2.022  0.3355 -0.2445 -0.4431
12098SOL    HW137735   1.294   7.890   1.988  1.2958  0.0388 -1.4423
12098SOL    HW237736   1.352   8.026   1.956  0.3230  0.9045  0.3368
12099SOL     OW37737   5.810   1.988   1.694  0.2248  0.2322 -0.7855
12099SOL    HW137738   5.816   1.897   1.721  1.1357 -0.1648 -2.1925
12099SOL    HW237739   5.716   2.006   1.689 -0.0105 -1.2499 -2.3852
12100SOL     OW37740   4.594   7.925  11.549 -0.5433 -0.0223  0.7592
12100SOL    HW137741   4.526   7.967  11.601  1.0136  0.6485  2.3894
12100SOL    HW237742   4.591   7.833  11.575 -1.5496 -0.2155 -0.0257
12101SOL     OW37743   6.893   7.069  11.912  0.2655 -0.2437 -0.2220
12101SOL    HW137744   6.840   6.990  11.922 -2.4128  1.5379  0.6765
12101SOL    HW237745   6.970   7.053  11.966 -0.2376 -2.1711  0.0147
12102SOL     OW37746   4.857   1.485  12.325  0.2965  0.1383 -0.8198
12102SOL    HW137747   4.793   1.556  12.334  0.5044  0.3227 -0.8032
12102SOL    HW237748   4.827   1.418  12.387  1.2832  1.0717  0.7325
12103SOL     OW37749   0.742   1.718   2.626  0.0556  0.4139  0.0664
12103SOL    HW137750   0.662   1.684   2.666 -0.0141  1.5548  0.9481
12103SOL    HW237751   0.745   1.810   2.653 -0.3120  1.4487 -3.1051
12104SOL     OW37752   6.020   0.036   0.326  0.1539 -0.8743 -0.4168
12104SOL    HW137753   5.946   0.006   0.274 -0.6796  0.9668 -0.3769
12104SOL    HW237754   6.071   0.090   0.265 -0.6499  1.0323  0.5346
12105SOL     OW37755   4.146   0.405   0.812  0.1516  0.2768  0.5251
12105SOL    HW137756   4.134   0.393   0.906 -0.5313 -1.2841  0.2691
12105SOL    HW237757   4.240   0.403   0.799  0.2769  1.1131  1.2363
12106SOL     OW37758   4.239   0.120   0.768 -0.2035  0.3587 -0.0369
12106SOL    HW137759   4.244   0.215   0.761  1.3375  0.2879 -0.2486
12106SOL    HW237760   4.244   0.102   0.861  1.4522  0.4359 -0.0794
12107SOL     OW37761   5.912   1.265   1.532 -0.1462 -0.5199  0.2506
12107SOL    HW137762   5.952   1.329   1.473  0.9435  0.5667  2.0679
12107SOL    HW237763   5.947   1.181   1.504 -0.1672 -0.1131 -1.0454
12108SOL     OW37764   5.492   0.757   0.193  0.9109 -0.2480 -0.4888
12108SOL    HW137765   5.581   0.788   0.180  0.3689  0.9389 -1.6205
12108SOL    HW237766   5.458   0.743   0.105 -0.1392 -0.3551 -0.0869
12109SOL     OW37767   4.352   6.207   1.117  0.2372 -0.2828  0.2365
12109SOL    HW137768   4.383   6.118   1.100  2.6602  0.4090  0.6594
12109SOL    HW237769   4.380   6.226   1.206 -0.8548  0.6735  0.3979
12110SOL     OW37770   3.383   0.974  12.464 -0.8270  0.2428 -0.0350
12110SOL    HW137771   3.293   0.961  12.436 -0.2014 -3.0322 -1.0008
12110SOL    HW237772   3.395   0.911  12.535  0.8420  0.1953 -0.3183
12111SOL     OW37773   3.109   6.397   0.844  0.1029  0.4152 -0.0200
12111SOL    HW137774   3.178   6.336   0.818 -0.5614 -0.9192  1.1849
12111SOL    HW237775   3.073   6.429   0.762  0.9511 -0.2745 -0.6783
12112SOL     OW37776   3.868   0.361  11.586 -0.1030 -0.2761  0.2129
12112SOL    HW137777   3.874   0.285  11.643 -1.2078  0.8178  1.8901
12112SOL    HW237778   3.774   0.375  11.574  0.0733  0.9317  0.1203
12113SOL     OW37779   2.945   2.620   1.080 -0.4782 -0.0361 -0.2183
12113SOL    HW137780   3.020   2.565   1.100 -1.0442 -0.9282 -0.4827
12113SOL    HW237781   2.957   2.644   0.988 -0.6164 -0.3470 -0.3187
12114SOL     OW37782   3.532   1.112   1.144  0.2453 -0.0402  0.2324
12114SOL    HW137783   3.445   1.115   1.105  1.1634  1.8131 -1.9177
12114SOL    HW237784   3.562   1.022   1.130 -1.7381 -1.1012  2.2141
12115SOL     OW37785   3.430   1.041   2.153  0.2814  0.3619  0.1357
12115SOL    HW137786   3.345   1.081   2.173  0.0728 -0.5170  1.0673
12115SOL    HW237787   3.430   0.960   2.203  0.9908 -0.4633 -1.1682
12116SOL     OW37788   1.901   0.992  11.954  0.1463  0.3497 -0.1468
12116SOL    HW137789   1.824   1.046  11.972  0.5709  1.1221 -0.6110
12116SOL    HW237790   1.966   1.053  11.919  0.3503 -0.5892 -1.4717
12117SOL     OW37791   4.874   0.344  12.408 -0.9646  0.4231  0.3201
12117SOL    HW137792   4.818   0.340  12.485 -1.2546  1.1582  0.1524
12117SOL    HW237793   4.896   0.436  12.398 -0.3469  0.2449 -0.0658
12118SOL     OW37794   5.481   1.155  11.894  0.6860  0.1116  0.4329
12118SOL    HW137795   5.516   1.168  11.982  0.2484  1.3043  0.4549
12118SOL    HW237796   5.437   1.071  11.897 -0.6250  0.8064  1.8043
12119SOL     OW37797   7.185   1.494   2.325 -0.1851  0.0107  0.5492
12119SOL    HW137798   7.120   1.464   2.262 -1.2390  0.5267  1.3585
12119SOL    HW237799   7.153   1.464   2.410  0.5855  0.3615  0.9791
12120SOL     OW37800   2.984   0.856  11.989  0.1823  0.3575 -0.8062
12120SOL    HW137801   2.950   0.935  12.032 -1.0571 -0.2769 -0.5733
12120SOL    HW237802   3.058   0.887  11.937  0.5311  1.4587  0.2940
12121SOL     OW37803   2.576   7.914   1.612  0.2529 -0.4377  0.6740
12121SOL    HW137804   2.484   7.942   1.613 -0.0645 -1.4475  2.1344
12121SOL    HW237805   2.603   7.925   1.521 -1.0462  0.7105  0.3902
12122SOL     OW37806   5.121   6.902   1.264 -0.0169  0.2217  0.1558
12122SOL    HW137807   5.135   6.877   1.173 -1.6082 -0.9199  0.1839
12122SOL    HW237808   5.160   6.830   1.315 -0.2916  0.2074  0.3480
12123SOL     OW37809   4.830   2.107   1.158  0.1431 -0.0707 -0.4570
12123SOL    HW137810   4.778   2.185   1.174 -0.2797 -0.0745 -1.7201
12123SOL    HW237811   4.872   2.122   1.074  0.9699 -0.7272 -0.1847
12124SOL     OW37812   6.202   0.150   0.121 -0.5154  0.2636 -0.1042
12124SOL    HW137813   6.181   0.227   0.174  0.5485 -0.6295  1.6802
12124SOL    HW237814   6.275   0.178   0.066  0.6979  0.1989  1.4282
12125SOL     OW37815   4.690   1.094   0.867 -0.6181  0.0075  0.2503
12125SOL    HW137816   4.651   1.162   0.813  0.9168  0.2762 -0.5848
12125SOL    HW237817   4.778   1.083   0.831  0.0805 -0.5589  2.0269
12126SOL     OW37818   3.386   0.571   1.256  0.2381  0.1383 -0.6593
12126SOL    HW137819   3.354   0.649   1.301  2.3814  0.8169 -0.1721
12126SOL    HW237820   3.307   0.526   1.226 -1.0900  2.1072 -0.3278
12127SOL     OW37821   5.251   0.294   0.355  0.4528 -0.1162 -0.3577
12127SOL    HW137822   5.269   0.385   0.329  1.4859 -0.2008  0.0229
12127SOL    HW237823   5.330   0.266   0.401  1.1171 -1.9735 -2.4664
12128SOL     OW37824   3.564   7.916   1.276  0.4692 -0.0174 -0.1910
12128SOL    HW137825   3.530   7.894   1.362  0.3504  0.2818 -0.1610
12128SOL    HW237826   3.562   7.833   1.227 -0.1589 -0.0310 -0.1471
12129SOL     OW37827   5.594   1.445   0.117  0.1708 -0.5641 -0.8117
12129SOL    HW137828   5.554   1.504   0.054  1.7899  2.4593  0.7957
12129SOL    HW237829   5.524   1.428   0.181 -0.8561 -2.0409 -2.2127
12130SOL     OW37830   3.942   1.983   0.446  0.2091 -0.1773  0.3149
12130SOL    HW137831   3.891   2.005   0.524 -0.3665  1.5341 -0.4794
12130SOL    HW237832   3.891   1.916   0.401 -0.6852  0.5237  0.2409
12131SOL     OW37833   4.069   1.801  12.255 -0.1636 -0.1361 -0.5612
12131SOL    HW137834   4.143   1.780  12.199  1.1683 -0.1023  1.1318
12131SOL    HW237835   3.994   1.762  12.210  1.0130 -1.0810 -1.7874
12132SOL     OW37836   5.206   1.401   1.728  0.1311  0.4647  0.0498
12132SOL    HW137837   5.221   1.464   1.657  0.8627 -0.1567 -0.3662
12132SOL    HW237838   5.224   1.316   1.688 -0.4437  0.0197  0.7154
12133SOL     OW37839   3.172   0.974   0.325  0.3218 -0.3036 -1.0224
12133SOL    HW137840   3.187   1.028   0.247  0.3967  0.1248 -0.7093
12133SOL    HW237841   3.252   0.921   0.332 -0.0898 -1.0549 -1.8023
12134SOL     OW37842   6.491   1.902   3.526 -0.2618 -0.0377 -0.3334
12134SOL    HW137843   6.428   1.969   3.551  2.0358  2.0849  0.1161
12134SOL    HW237844   6.493   1.841   3.600 -0.3743  0.9632  0.5106
12135SOL     OW37845   6.092   7.844   0.953 -0.0689  0.9261 -0.1862
12135SOL    HW137846   6.139   7.841   0.870 -0.2743  2.5711 -0.3822
12135SOL    HW237847   6.049   7.758   0.959  1.2811  0.1689 -0.9647
12136SOL     OW37848   4.350   0.418   1.364  0.0293  0.7106 -0.0531
12136SOL    HW137849   4.262   0.456   1.372  0.1747  0.9416  0.5160
12136SOL    HW237850   4.405   0.492   1.340  0.5371  1.1739  2.3110
12137SOL     OW37851   3.363   0.516  11.946  0.6250  0.6600  0.6407
12137SOL    HW137852   3.363   0.516  11.850  1.7089  0.4989  0.6251
12137SOL    HW237853   3.280   0.556  11.970 -1.7810 -3.1896 -0.3273
12138SOL     OW37854   4.755   7.990   0.737 -0.2272  0.1682 -0.4521
12138SOL    HW137855   4.803   8.054   0.788  0.5379  0.4429 -1.4886
12138SOL    HW237856   4.737   7.919   0.799 -0.6691  1.1492  0.5778
12139SOL     OW37857   5.277   0.948   0.053 -0.0315  0.0065  0.0344
12139SOL    HW137858   5.208   0.938   0.119  0.1814  2.2571  0.6807
12139SOL    HW237859   5.236   0.997  -0.018  0.0084 -1.5825 -1.1171
12140SOL     OW37860   4.941   1.137   0.762  0.2793  0.6486 -0.0111
12140SOL    HW137861   5.035   1.139   0.743  0.2607 -0.4498 -0.2785
12140SOL    HW237862   4.904   1.208   0.709  0.6097 -0.5889 -2.0221
12141SOL     OW37863   4.600   1.269   0.271  0.3583  0.2642  0.5030
12141SOL    HW137864   4.571   1.179   0.283  2.0262 -0.3496  0.1239
12141SOL    HW237865   4.528   1.311   0.223 -0.6505 -0.7138  1.1097
12142SOL     OW37866   4.006   1.715   0.192  0.2342  0.1566  0.1304
12142SOL    HW137867   3.962   1.650   0.139 -0.0944 -0.1159  0.7256
12142SOL    HW237868   3.936   1.762   0.237  0.4776  0.7812 -0.1343
12143SOL     OW37869   3.755   1.186  11.710  0.4810 -0.4304  0.1790
12143SOL    HW137870   3.835   1.208  11.758  0.6509  0.1419 -0.3527
12143SOL    HW237871   3.757   1.243  11.633 -0.1960 -0.7585 -0.0875
12144SOL     OW37872   5.199   0.204  11.705  0.0293 -0.1333 -0.4732
12144SOL    HW137873   5.170   0.254  11.629 -0.3476 -0.8099 -0.7819
12144SOL    HW237874   5.294   0.209  11.701  0.0009  0.7950 -0.3336
12145SOL     OW37875   3.548   2.445   0.546 -0.6272  0.0381 -0.0230
12145SOL    HW137876   3.551   2.539   0.525 -0.1997  0.5500  2.0508
12145SOL    HW237877   3.462   2.417   0.515 -0.5684  0.9850 -1.1385
12146SOL     OW37878   4.742   1.620   0.714  0.3018  0.1116 -0.3206
12146SOL    HW137879   4.835   1.642   0.710  0.2664  0.1446 -1.1241
12146SOL    HW237880   4.718   1.600   0.623 -1.1538  2.8092 -0.6237
12147SOL     OW37881   2.318   0.849   1.242  0.1142 -0.1317  0.0190
12147SOL    HW137882   2.361   0.900   1.311 -1.2170 -0.0195  0.8012
12147SOL    HW237883   2.252   0.908   1.206 -0.5250 -0.8403  0.0033
12148SOL     OW37884   4.709   0.675   1.120  0.1869 -0.0918  0.8598
12148SOL    HW137885   4.802   0.690   1.106 -0.0245  1.0062  0.5242
12148SOL    HW237886   4.666   0.752   1.083 -0.9023 -0.9059  0.3597
12149SOL     OW37887   3.222   0.531   0.492 -0.2327 -0.2490 -0.0433
12149SOL    HW137888   3.289   0.555   0.556  1.4096  0.2292 -1.8249
12149SOL    HW237889   3.139   0.544   0.537  0.8283  0.7676  1.7313
12150SOL     OW37890   5.066   7.922  12.316  0.2574  0.1460 -0.3703
12150SOL    HW137891   5.093   7.994  12.372 -0.7940  1.2316 -1.2009
12150SOL    HW237892   4.972   7.936  12.303  0.7552  1.1902 -4.0172
12151SOL     OW37893   3.282   7.537   0.499 -0.1156  0.1147  0.1868
12151SOL    HW137894   3.189   7.559   0.496 -0.2762 -0.6217 -0.4182
12151SOL    HW237895   3.286   7.443   0.484  0.7672  0.2573 -0.6493
12152SOL     OW37896   5.644   0.675  12.086 -0.0841  0.3140 -0.1716
12152SOL    HW137897   5.607   0.597  12.045 -0.3625  0.6707 -0.6062
12152SOL    HW237898   5.572   0.712  12.137  0.3621 -0.3347  0.9623
12153SOL     OW37899   5.177   0.420  11.906  0.3357  0.2371 -0.0292
12153SOL    HW137900   5.172   0.347  11.844 -1.9029  1.2107 -1.1403
12153SOL    HW237901   5.086   0.435  11.931  1.0609  0.8043  2.4544
12154SOL     OW37902   5.679   3.842   0.681  0.5178 -0.3276 -0.2511
12154SOL    HW137903   5.584   3.855   0.686  0.1799 -1.0129 -3.0506
12154SOL    HW237904   5.715   3.899   0.749 -1.8930 -0.2444  1.0469
12155SOL     OW37905   5.210   2.799   1.943  0.2048  0.1760  0.3806
12155SOL    HW137906   5.264   2.871   1.909 -0.5337  0.7798  0.4629
12155SOL    HW237907   5.123   2.816   1.907 -0.0676 -0.4472  0.7463
12156SOL     OW37908   2.782   1.857   0.257 -0.0626  0.1528  0.0130
12156SOL    HW137909   2.746   1.804   0.186 -0.9572 -0.8564  1.1797
12156SOL    HW237910   2.706   1.903   0.294 -0.1455 -1.4949  2.0820
12157SOL     OW37911   3.812   0.749  12.281 -0.5627  0.1708 -0.4138
12157SOL    HW137912   3.831   0.661  12.249 -0.2590  0.7258 -1.8305
12157SOL    HW237913   3.717   0.749  12.295 -0.4569 -0.6146  0.3835
12158SOL     OW37914   3.640   7.551   1.496 -0.2234  0.0915 -1.3155
12158SOL    HW137915   3.712   7.597   1.540  0.0359 -0.1211 -1.5135
12158SOL    HW237916   3.588   7.620   1.456  0.1383  0.2213 -1.5732
12159SOL     OW37917   4.779   7.536   2.168  0.1296  0.0956  0.0614
12159SOL    HW137918   4.694   7.506   2.200  0.0848  0.5799  0.4014
12159SOL    HW237919   4.826   7.455   2.147 -0.4619 -0.1718 -0.2610
12160SOL     OW37920   4.584   0.429   3.843 -0.2544 -0.0533  0.1227
12160SOL    HW137921   4.648   0.421   3.773 -0.7807  0.4628 -0.4232
12160SOL    HW237922   4.500   0.415   3.801 -0.7802  2.3774  0.1804
12161SOL     OW37923   3.877   7.144   3.093  0.0775  0.2375  0.2479
12161SOL    HW137924   3.951   7.205   3.096  0.2222  0.1185 -0.6150
12161SOL    HW237925   3.800   7.200   3.080  0.3417  0.1981 -1.8960
12162SOL     OW37926   4.095   0.877   3.109  0.1146 -0.1345 -0.3225
12162SOL    HW137927   4.079   0.971   3.100  0.6430  0.4734  3.3056
12162SOL    HW237928   4.169   0.859   3.051 -0.5635  1.4358 -1.7671
12163SOL     OW37929   5.558   0.696   2.037  0.3245 -0.1732  0.2453
12163SOL    HW137930   5.557   0.628   1.970  1.0010  1.8186 -1.9233
12163SOL    HW237931   5.550   0.778   1.989  1.4457  1.4225  2.5610
12164SOL     OW37932   4.169   1.859   0.577 -0.2593  0.4175  0.2265
12164SOL    HW137933   4.087   1.840   0.532 -0.3430 -1.2474  1.0109
12164SOL    HW237934   4.145   1.913   0.652 -0.7180 -0.4461  0.7124
12165SOL     OW37935   2.887   2.052   1.655 -0.3754  0.0234 -1.0470
12165SOL    HW137936   2.959   2.080   1.599  0.0475 -0.4774 -0.7661
12165SOL    HW237937   2.845   2.134   1.684  1.7494  0.4947  0.9654
12166SOL     OW37938   4.025   1.552   3.605 -0.1167  0.2169  0.2500
12166SOL    HW137939   4.001   1.618   3.540  1.5668  0.6501  0.0247
12166SOL    HW237940   4.018   1.469   3.559 -0.0058  0.4306 -0.1585
12167SOL     OW37941   3.908   1.739   3.441 -0.0936  0.2247 -0.1437
12167SOL    HW137942   3.967   1.811   3.420  0.4824 -0.6570 -1.7737
12167SOL    HW237943   3.851   1.732   3.364 -0.8978 -0.3166  0.4926
12168SOL     OW37944   4.063   1.464   3.860  0.4044  0.6194  0.0032
12168SOL    HW137945   4.057   1.546   3.909 -1.5533  0.9328 -0.6705
12168SOL    HW237946   4.025   1.484   3.774 -1.7324 -1.3564  0.3729
12169SOL     OW37947   5.811   2.931   4.201 -0.7985  0.4016 -0.2930
12169SOL    HW137948   5.802   2.980   4.118  0.2637  0.1687 -0.5601
12169SOL    HW237949   5.902   2.945   4.227 -0.8009 -0.4938  0.2324
12170SOL     OW37950   4.436   1.122   3.091 -0.1442  0.2705  0.0047
12170SOL    HW137951   4.483   1.205   3.077  1.6264 -0.6703 -0.0051
12170SOL    HW237952   4.469   1.065   3.022 -0.9285 -0.6150  0.3495
12171SOL     OW37953   5.843   1.024   2.626 -0.1037  0.2403  0.5880
12171SOL    HW137954   5.755   0.995   2.652 -0.0346 -0.3032  0.2506
12171SOL    HW237955   5.862   1.098   2.682 -1.1252  0.9044  0.0841
12172SOL     OW37956   3.279   2.484   1.663  0.4002  0.2700  0.2620
12172SOL    HW137957   3.291   2.539   1.586  0.0527  0.9873  0.7058
12172SOL    HW237958   3.187   2.457   1.659  0.5984 -0.3792 -0.0143
12173SOL     OW37959   6.027   1.198   3.913  0.6509  0.2564  0.0037
12173SOL    HW137960   6.057   1.244   3.991  1.0623 -1.4037  0.8742
12173SOL    HW237961   6.072   1.242   3.841  0.4582  1.6575  0.7074
12174SOL     OW37962   3.825   7.782   2.681 -0.0619  0.0228 -0.4354
12174SOL    HW137963   3.790   7.750   2.597 -0.1465 -0.0259 -0.3821
12174SOL    HW237964   3.867   7.706   2.720  0.6572  0.2329 -0.7821
12175SOL     OW37965   3.169   1.082   2.060 -0.1845 -0.8063  0.3085
12175SOL    HW137966   3.242   1.028   2.029 -0.6072 -2.7677  2.4769
12175SOL    HW237967   3.099   1.020   2.079 -1.1496  0.6250  1.6758
12176SOL     OW37968   4.146   2.505   4.292  0.5911 -0.0115  0.5867
12176SOL    HW137969   4.066   2.556   4.279  0.5743  0.5975  2.8302
12176SOL    HW237970   4.134   2.463   4.377  1.7038 -1.7572 -0.0658
12177SOL     OW37971   5.316   7.866   0.479 -0.3105 -0.9763 -0.3560
12177SOL    HW137972   5.241   7.826   0.523  0.7241 -2.4786  0.1149
12177SOL    HW237973   5.344   7.936   0.538 -1.1234 -0.6172 -0.3821
12178SOL     OW37974   6.864   1.131   2.907 -0.5146  0.4674 -0.5271
12178SOL    HW137975   6.787   1.152   2.855 -0.5032  1.9764  0.0163
12178SOL    HW237976   6.840   1.156   2.996 -0.3915 -1.6823  0.1778
12179SOL     OW37977   4.266   2.058   3.041 -0.3647  0.5189  0.7599
12179SOL    HW137978   4.309   2.096   2.965 -2.7068 -0.8813 -1.4216
12179SOL    HW237979   4.173   2.052   3.017 -1.0555 -0.9705  3.3070
12180SOL     OW37980   4.553   2.232   1.030  0.2540  0.0101  0.4905
12180SOL    HW137981   4.480   2.189   1.075 -2.8923  3.3078 -0.9212
12180SOL    HW237982   4.577   2.305   1.087  1.5983 -0.2616  0.3096
12181SOL     OW37983   5.300   1.646   2.099 -0.0853  0.0697 -0.3506
12181SOL    HW137984   5.314   1.560   2.138 -1.8363  1.1327  2.8875
12181SOL    HW237985   5.383   1.692   2.114 -0.2001 -0.0600  0.7609
12182SOL     OW37986   5.751   0.402   4.853 -0.4069  0.9363 -0.5766
12182SOL    HW137987   5.826   0.384   4.796  0.7168  1.1074  0.8184
12182SOL    HW237988   5.709   0.479   4.813 -1.8323 -1.0634 -3.2356
12183SOL     OW37989   4.895   1.550   2.494  0.0623  0.2376 -0.5662
12183SOL    HW137990   4.890   1.504   2.577 -2.0839  2.0680  0.4445
12183SOL    HW237991   4.855   1.490   2.431  1.3095 -0.9915 -0.2296
12184SOL     OW37992   4.444   7.830   2.370  0.0382 -0.1256  0.8239
12184SOL    HW137993   4.459   7.893   2.442 -2.6500 -0.8375  2.1431
12184SOL    HW237994   4.350   7.836   2.353  0.3343 -1.2373 -1.5203
12185SOL     OW37995   4.534   2.199   2.018  0.1378 -0.4212 -0.0988
12185SOL    HW137996   4.517   2.201   1.924 -1.9879  0.4204  0.2533
12185SOL    HW237997   4.522   2.290   2.047  2.5819 -0.2918  0.7481
12186SOL     OW37998   4.615   0.697   3.965  0.2442 -0.4772  0.2665
12186SOL    HW137999   4.635   0.612   3.926  1.1088 -0.0467 -0.2444
12186SOL    HW238000   4.697   0.746   3.960 -0.2598  0.4089  0.5071
12187SOL     OW38001   3.840   0.492   3.662  0.1680  0.1973 -0.1075
12187SOL    HW138002   3.830   0.397   3.667  0.3620  0.1164 -1.0383
12187SOL    HW238003   3.752   0.526   3.677 -0.0269 -0.1615 -0.4211
12188SOL     OW38004   3.809   2.708   2.770 -0.5634 -0.1844 -0.0355
12188SOL    HW138005   3.755   2.753   2.835 -0.2617 -0.7383  0.6131
12188SOL    HW238006   3.871   2.657   2.822 -2.0263 -2.7894 -0.6925
12189SOL     OW38007   5.576   2.027   1.182  1.0853  0.2734  0.5582
12189SOL    HW138008   5.601   1.952   1.128  2.3455  0.7097  0.5072
12189SOL    HW238009   5.488   2.005   1.214  1.6559 -1.4997  1.0406
12190SOL     OW38010   2.795   1.880   4.768 -0.4322  0.0273  0.7651
12190SOL    HW138011   2.861   1.891   4.836  0.6304 -0.3574 -0.1731
12190SOL    HW238012   2.726   1.941   4.792  0.9031  1.5157  1.0099
12191SOL     OW38013   4.837   0.606   2.144  0.2839  0.2708  0.1649
12191SOL    HW138014   4.914   0.662   2.132  1.9727 -1.9044  0.3825
12191SOL    HW238015   4.770   0.646   2.087  1.7312  1.8694 -0.4997
12192SOL     OW38016   4.815   2.596   3.159  0.4967 -0.1461  0.0800
12192SOL    HW138017   4.853   2.682   3.139 -2.1947  1.3096  0.7528
12192SOL    HW238018   4.832   2.584   3.252  2.2433 -1.1594 -0.3194
12193SOL     OW38019   5.046   1.123   3.279  0.0377  0.7657 -0.3984
12193SOL    HW138020   5.091   1.195   3.234  1.4117 -0.3521 -0.8641
12193SOL    HW238021   5.093   1.112   3.361 -0.5108  0.7389 -0.0806
12194SOL     OW38022   3.181   1.481   2.102 -0.0060  0.2403 -0.4949
12194SOL    HW138023   3.187   1.525   2.017 -1.1142 -0.4828 -0.9566
12194SOL    HW238024   3.120   1.409   2.088  1.2570 -1.0745  0.4166
12195SOL     OW38025   5.718   0.472   2.413  0.1216 -0.1484 -0.3776
12195SOL    HW138026   5.748   0.443   2.499 -0.4442 -0.8474 -0.4016
12195SOL    HW238027   5.793   0.517   2.375  0.0905  0.9916  0.8471
12196SOL     OW38028   5.372   2.713   2.375  0.5140 -0.3648 -0.6248
12196SOL    HW138029   5.443   2.747   2.429  0.9687 -1.7933 -0.2800
12196SOL    HW238030   5.379   2.760   2.292  1.6558 -0.2418 -0.4741
12197SOL     OW38031   4.301   1.714   1.248  0.6113 -0.0423 -0.2123
12197SOL    HW138032   4.234   1.776   1.219  0.5269  1.7355  3.2956
12197SOL    HW238033   4.269   1.628   1.219 -1.0439  1.1532 -2.1623
12198SOL     OW38034   4.984   0.199   4.707 -0.3047 -0.2262  0.2749
12198SOL    HW138035   4.888   0.195   4.703 -0.2394 -0.6351 -1.4391
12198SOL    HW238036   5.012   0.210   4.616  1.1961  2.4348  0.9368
12199SOL     OW38037   3.807   0.595   4.167  0.5663 -0.0701  0.4888
12199SOL    HW138038   3.755   0.674   4.155 -0.1215 -0.3990  1.2275
12199SOL    HW238039   3.744   0.523   4.161  1.4349 -0.7202 -2.0645
12200SOL     OW38040   4.469   1.374   4.430 -0.1061  0.0087  0.3259
12200SOL    HW138041   4.390   1.325   4.409  0.0897  0.8135 -2.9000
12200SOL    HW238042   4.440   1.465   4.435  0.5047  0.2642 -0.4704
12201SOL     OW38043   5.620   2.426   1.266  0.2812 -0.7311  0.3201
12201SOL    HW138044   5.551   2.401   1.327 -0.5486 -0.0838 -0.3346
12201SOL    HW238045   5.691   2.457   1.321 -0.5861  0.1711  0.9477
12202SOL     OW38046   3.861   1.784   0.687  0.2985 -0.1047  0.6809
12202SOL    HW138047   3.853   1.879   0.693  0.5602 -0.0883  0.7946
12202SOL    HW238048   3.878   1.755   0.777 -1.3325 -0.4196  0.9188
12203SOL     OW38049   4.133   1.913   3.423 -0.1462  0.1641 -0.1248
12203SOL    HW138050   4.162   1.985   3.366 -0.2046 -0.3805 -0.8516
12203SOL    HW238051   4.192   1.918   3.498  1.1238 -0.2138 -1.0541
12204SOL     OW38052   4.097   0.389   1.078 -0.2278  0.3690  0.4038
12204SOL    HW138053   4.003   0.404   1.077  0.0325  2.3212  0.5222
12204SOL    HW238054   4.133   0.461   1.130  1.3927  0.0962 -0.2483
12205SOL     OW38055   6.357   1.581   5.335 -0.4466 -0.7634 -0.0731
12205SOL    HW138056   6.442   1.582   5.380 -0.5095  0.9083  0.0773
12205SOL    HW238057   6.299   1.533   5.394 -0.1309  0.0236  0.9098
12206SOL     OW38058   4.198   1.039   3.389 -0.2160 -0.5836 -0.1715
12206SOL    HW138059   4.237   0.961   3.349  1.5311  0.5376 -0.7716
12206SOL    HW238060   4.170   1.093   3.315 -1.3252 -0.5753  0.2368
12207SOL     OW38061   5.278   2.024   1.282 -0.2256  0.5316 -0.5238
12207SOL    HW138062   5.185   2.032   1.305  0.0657 -0.9756  1.4887
12207SOL    HW238063   5.283   1.946   1.226 -0.1698  0.5563 -0.5533
12208SOL     OW38064   3.217   2.687   1.057 -0.6581  0.4560 -0.6197
12208SOL    HW138065   3.226   2.621   0.988 -0.8932  2.0588 -2.2503
12208SOL    HW238066   3.247   2.768   1.017 -0.5502  1.4025  1.2734
12209SOL     OW38067   5.225   7.447   6.268  0.9030  0.5287 -0.1996
12209SOL    HW138068   5.195   7.365   6.229  2.7330 -0.0216 -0.5174
12209SOL    HW238069   5.271   7.492   6.197  3.9458 -0.3014  1.1036
12210SOL     OW38070   4.454   0.761   2.379  0.3698 -0.4791  0.1126
12210SOL    HW138071   4.424   0.841   2.335  0.2895  0.2632  1.4583
12210SOL    HW238072   4.414   0.765   2.466  1.7496 -1.1143  0.8111
12211SOL     OW38073   2.694   0.293   1.144 -0.6803 -0.4798  0.4993
12211SOL    HW138074   2.689   0.338   1.229 -0.1821  0.5828 -0.0115
12211SOL    HW238075   2.787   0.274   1.132 -0.9203 -2.0192  0.8695
12212SOL     OW38076   5.568   7.815   3.620  0.5195  0.4125 -0.2229
12212SOL    HW138077   5.620   7.778   3.691 -0.1994 -1.6928 -0.7436
12212SOL    HW238078   5.485   7.839   3.661  0.6817  0.7028 -0.0556
12213SOL     OW38079   5.064   2.405   4.839  0.1055  0.0208  0.2109
12213SOL    HW138080   5.037   2.328   4.888 -2.6146  0.5923 -0.2198
12213SOL    HW238081   5.110   2.460   4.903  1.1609 -1.4631  0.7630
12214SOL     OW38082   3.691   2.226   3.902  0.2895 -0.2582  0.0773
12214SOL    HW138083   3.598   2.231   3.926  0.1862 -0.1048 -0.3590
12214SOL    HW238084   3.707   2.133   3.887 -0.5807 -0.0016 -2.9419
12215SOL     OW38085   4.830   1.821   1.594 -0.7307  0.3598 -0.0206
12215SOL    HW138086   4.820   1.727   1.605 -1.3649  0.2952 -1.0231
12215SOL    HW238087   4.743   1.852   1.568 -0.4980  1.2038  0.1507
12216SOL     OW38088   4.238   0.831   0.485 -0.8671  0.3347 -0.6103
12216SOL    HW138089   4.225   0.925   0.469 -0.3901  0.4847 -0.1132
12216SOL    HW238090   4.268   0.797   0.401 -1.1516  0.6044 -0.8267
12217SOL     OW38091   3.799   2.196   1.795 -0.3464 -0.2260 -0.1056
12217SOL    HW138092   3.829   2.152   1.715 -1.1496  0.3873 -0.7556
12217SOL    HW238093   3.709   2.223   1.776 -0.3378  0.4826  0.7798
12218SOL     OW38094   4.474   2.979   3.203  0.5919 -0.1606 -0.3939
12218SOL    HW138095   4.451   2.941   3.118 -0.2366 -1.5349  0.4079
12218SOL    HW238096   4.473   2.904   3.263 -1.2158  1.1332  1.2983
12219SOL     OW38097   5.608   1.553   1.793 -0.2940  0.2339 -0.1373
12219SOL    HW138098   5.654   1.481   1.751  1.1664  0.7754  0.4295
12219SOL    HW238099   5.531   1.513   1.832  0.9832 -1.2462  1.0219
12220SOL     OW38100   3.358   0.239   1.944  0.0427  0.5834 -0.7017
12220SOL    HW138101   3.432   0.294   1.969 -0.5417  0.5387  1.3118
12220SOL    HW238102   3.292   0.255   2.011 -1.2107 -0.5089 -1.6086
12221SOL     OW38103   3.541   1.417   4.565 -0.2017  0.2114  0.5914
12221SOL    HW138104   3.542   1.323   4.550  1.9680  0.1874  0.4456
12221SOL    HW238105   3.584   1.428   4.650 -0.1615  1.0772  0.4682
12222SOL     OW38106   4.839   0.806   3.885  0.3842 -0.2718  0.2281
12222SOL    HW138107   4.932   0.822   3.866  0.7750 -2.2548  0.2817
12222SOL    HW238108   4.803   0.776   3.801 -0.5722  1.7324 -0.1481
12223SOL     OW38109   4.427   1.101   2.373 -0.0061 -0.0116  0.5973
12223SOL    HW138110   4.348   1.050   2.358 -0.3323  0.5376  0.3967
12223SOL    HW238111   4.395   1.189   2.395  0.5296  0.9921 -2.2301
12224SOL     OW38112   6.585   0.103   2.736  0.3367  0.1896  0.0473
12224SOL    HW138113   6.663   0.048   2.730  0.2404 -0.0406  0.8298
12224SOL    HW238114   6.596   0.167   2.665  0.2295 -1.0944 -1.1685
12225SOL     OW38115   4.808   0.430   3.497  0.2924  0.6575  0.1998
12225SOL    HW138116   4.779   0.366   3.562 -1.7524  0.7727 -0.5017
12225SOL    HW238117   4.748   0.504   3.507 -0.7948  0.2726 -2.3791
12226SOL     OW38118   4.745   0.851   2.868  0.4010  0.2005 -0.2450
12226SOL    HW138119   4.787   0.868   2.953 -1.1002  1.4676  0.2859
12226SOL    HW238120   4.728   0.938   2.833 -0.4216 -0.3117 -1.1427
12227SOL     OW38121   4.536   0.989   3.590 -0.0531  0.9759 -0.4081
12227SOL    HW138122   4.474   0.919   3.610  0.3070  0.7557 -0.0480
12227SOL    HW238123   4.531   0.998   3.495  1.6558 -1.2585 -0.8249
12228SOL     OW38124   4.889   0.036   2.956  0.4111 -0.4107  0.4281
12228SOL    HW138125   4.876   0.129   2.977 -0.1129 -0.0832 -1.1824
12228SOL    HW238126   4.983   0.027   2.943  0.3938  0.0750 -0.0838
12229SOL     OW38127   5.088   1.629  12.381  0.1338  0.6132  0.8302
12229SOL    HW138128   5.131   1.578  12.450  1.5026 -0.9216 -1.0470
12229SOL    HW238129   5.005   1.584  12.366  0.0750  0.6293  1.1055
12230SOL     OW38130   4.306   1.242   1.217  0.6181  0.1444  0.1196
12230SOL    HW138131   4.237   1.178   1.198 -0.7746  1.6279 -0.0607
12230SOL    HW238132   4.369   1.231   1.146  1.3592 -2.2072  1.0407
12231SOL     OW38133   6.757   0.121   3.466  0.6180 -1.0764 -0.2476
12231SOL    HW138134   6.815   0.187   3.428  0.4860  0.2592  1.6936
12231SOL    HW238135   6.675   0.168   3.481  0.1357 -2.0180  0.1290
12232SOL     OW38136   5.587   0.737   4.411 -0.2616  0.3171 -0.0663
12232SOL    HW138137   5.536   0.809   4.449  1.4814  0.3396  2.4825
12232SOL    HW238138   5.582   0.667   4.476  1.3760 -0.3610 -0.6212
12233SOL     OW38139   5.546   2.486   3.036 -0.3529 -0.3965  0.3696
12233SOL    HW138140   5.557   2.466   2.943 -1.6257 -0.5650  0.2288
12233SOL    HW238141   5.536   2.581   3.040  0.5295 -0.3062  0.4316
12234SOL     OW38142   4.680   0.254   3.636  0.2687 -0.0658 -0.0147
12234SOL    HW138143   4.718   0.202   3.708  0.5020 -0.8245 -0.6642
12234SOL    HW238144   4.593   0.216   3.623  0.5724 -0.5614 -0.7257
12235SOL     OW38145   5.579   3.062   0.433  0.3875  0.2920 -0.3639
12235SOL    HW138146   5.575   3.017   0.348  0.2216  0.4160 -0.4212
12235SOL    HW238147   5.668   3.046   0.464  1.1658  2.0478 -1.5412
12236SOL     OW38148   3.860   0.602   2.357  0.7182  0.7360 -0.3635
12236SOL    HW138149   3.842   0.545   2.282 -2.1455  0.8963  0.1161
12236SOL    HW238150   3.955   0.613   2.356  0.7255  2.4225 -5.1791
12237SOL     OW38151   4.296   0.369   3.777 -0.0562  0.3351 -0.3001
12237SOL    HW138152   4.313   0.389   3.869 -2.3115  0.7536  0.0963
12237SOL    HW238153   4.203   0.388   3.765  0.0212 -0.3382 -2.5159
12238SOL     OW38154   6.022   0.509   2.060 -0.0675 -0.1282  0.0307
12238SOL    HW138155   5.990   0.556   2.137 -0.6252  0.0189 -0.2862
12238SOL    HW238156   6.086   0.568   2.020  0.3697 -0.2832  0.4753
12239SOL     OW38157   3.907   1.921   2.609  0.2969  0.4886  0.3015
12239SOL    HW138158   3.989   1.961   2.579  0.8628  0.4579  1.7488
12239SOL    HW238159   3.862   1.896   2.528  1.5358  0.8488 -0.5316
12240SOL     OW38160   5.246   5.985   3.210  0.5431  0.8293  0.4821
12240SOL    HW138161   5.183   5.946   3.149  0.7816  0.8530  0.2145
12240SOL    HW238162   5.277   5.911   3.263  0.6653  0.7292  0.2724
12241SOL     OW38163   5.705   1.824   2.885  0.4092  0.3012 -0.3445
12241SOL    HW138164   5.638   1.774   2.839  0.9983 -1.8962  1.0551
12241SOL    HW238165   5.662   1.906   2.908 -1.0849 -0.1465 -1.3958
12242SOL     OW38166   4.301   0.681   3.035  0.8773  0.0569  0.5595
12242SOL    HW138167   4.261   0.594   3.031  2.0114 -0.5186  1.1034
12242SOL    HW238168   4.312   0.699   3.128  1.1926  0.5146  0.4409
12243SOL     OW38169   6.261   0.905   2.423 -0.3700 -0.4181 -0.2673
12243SOL    HW138170   6.236   0.886   2.513 -0.2226  0.2099 -0.0870
12243SOL    HW238171   6.204   0.979   2.398 -1.5646 -1.6143 -1.2396
12244SOL     OW38172   4.642   0.928   1.856 -0.5704 -0.1698 -1.0190
12244SOL    HW138173   4.650   0.839   1.822  1.3828 -0.2351 -0.4983
12244SOL    HW238174   4.730   0.949   1.889 -1.9170  0.5035  2.4904
12245SOL     OW38175   6.719   1.787   0.858  0.0257 -0.2613  0.2172
12245SOL    HW138176   6.807   1.799   0.893  0.7366  1.4114 -1.9383
12245SOL    HW238177   6.724   1.707   0.805  0.2000 -0.2464  0.2135
12246SOL     OW38178   4.675   0.616  11.724 -0.4516 -0.4763  0.0306
12246SOL    HW138179   4.636   0.635  11.638  0.5063  0.5503 -0.2145
12246SOL    HW238180   4.760   0.577  11.703  0.5250  1.2982  0.4361
12247SOL     OW38181   3.053   7.418   2.308 -0.3832  0.2644 -0.3941
12247SOL    HW138182   3.093   7.466   2.235 -2.2811  0.4700 -1.3557
12247SOL    HW238183   2.977   7.471   2.332 -1.1970 -1.0853  0.0685
12248SOL     OW38184   3.226   1.698   3.632  0.6309 -0.6342  0.0594
12248SOL    HW138185   3.278   1.778   3.632 -0.5445  0.1518 -0.5077
12248SOL    HW238186   3.146   1.721   3.583 -1.0012 -1.3116  2.2494
12249SOL     OW38187   4.080   1.356   3.361  0.6916 -0.4257  0.2662
12249SOL    HW138188   4.173   1.338   3.369  0.5384 -2.1309 -1.1523
12249SOL    HW238189   4.071   1.400   3.276  0.3436  1.1749  1.0861
12250SOL     OW38190   4.535   1.597   2.626  0.0006 -0.4121 -0.1620
12250SOL    HW138191   4.446   1.562   2.636  0.4538 -1.5247  0.1530
12250SOL    HW238192   4.581   1.532   2.572  0.7605 -0.1052  0.0975
12251SOL     OW38193   5.387   7.871   4.078 -0.4657  0.1769  0.2425
12251SOL    HW138194   5.439   7.793   4.065 -1.1180  0.0004 -1.6190
12251SOL    HW238195   5.301   7.839   4.107 -0.0343  0.3803  1.8477
12252SOL     OW38196   6.050   7.507   3.815  0.5280  0.1317 -0.0610
12252SOL    HW138197   5.985   7.488   3.881  0.7790 -0.6975 -0.0380
12252SOL    HW238198   6.038   7.439   3.748  1.2293  0.0758 -0.1474
12253SOL     OW38199   4.852   1.369   5.374  0.3996 -0.7665  0.0745
12253SOL    HW138200   4.942   1.395   5.354  0.4759  1.8910  3.0611
12253SOL    HW238201   4.803   1.387   5.294  1.2984  4.9439  0.4116
12254SOL     OW38202   4.662   1.201   1.722 -0.1614  0.0023  0.4496
12254SOL    HW138203   4.613   1.197   1.639 -0.3275  0.7033  0.5107
12254SOL    HW238204   4.640   1.119   1.766  0.4763 -0.7022 -0.5059
12255SOL     OW38205   4.394   2.352   2.707 -0.5585  0.7763 -0.1479
12255SOL    HW138206   4.371   2.443   2.688 -0.0587  0.5914 -1.8320
12255SOL    HW238207   4.435   2.321   2.626 -0.5733 -0.8991  0.4586
12256SOL     OW38208   4.162   1.151   3.152 -0.4053  0.2066  0.5810
12256SOL    HW138209   4.257   1.164   3.141 -0.1504 -1.7475  0.2814
12256SOL    HW238210   4.123   1.194   3.076  0.2605  0.6994  0.5069
12257SOL     OW38211   2.987   7.349   3.320  0.4574  0.3162  0.0216
12257SOL    HW138212   2.946   7.266   3.296 -1.0181  1.6556 -2.4880
12257SOL    HW238213   3.078   7.340   3.291  0.0689 -0.1095 -1.1335
12258SOL     OW38214   3.975   7.920   0.833 -0.2565 -0.5226 -0.7467
12258SOL    HW138215   4.037   7.939   0.903 -1.2340 -0.4295  0.1217
12258SOL    HW238216   3.990   7.988   0.768 -1.2070  1.0846  0.6505
12259SOL     OW38217   6.030   1.406   4.283  0.2928  0.2039 -0.0976
12259SOL    HW138218   6.096   1.391   4.216  0.3790  1.3483 -0.2865
12259SOL    HW238219   5.947   1.380   4.242  0.5736 -0.9593  0.0431
12260SOL     OW38220   5.125   1.833   3.484  0.4458 -0.1771  0.0244
12260SOL    HW138221   5.055   1.823   3.549 -0.6397 -5.3867 -1.4221
12260SOL    HW238222   5.201   1.793   3.526  0.9715  0.3696 -0.4010
12261SOL     OW38223   3.335   1.023   4.211  0.6171  0.0774 -0.7850
12261SOL    HW138224   3.362   0.934   4.232  0.4700  0.4844  1.4054
12261SOL    HW238225   3.240   1.023   4.224  0.7633  0.8154  0.4976
12262SOL     OW38226   4.125   0.556   2.302 -0.1201 -0.4516 -0.0768
12262SOL    HW138227   4.112   0.479   2.248  1.1246 -0.1998 -0.7483
12262SOL    HW238228   4.190   0.609   2.256  0.0985  0.3332  1.0679
12263SOL     OW38229   4.443   2.497   3.172 -0.4266  0.0002  0.3659
12263SOL    HW138230   4.486   2.451   3.243  0.2588  2.6911  1.8343
12263SOL    HW238231   4.352   2.508   3.202 -0.3797  0.2903  0.4088
12264SOL     OW38232   2.591   1.490   3.533 -0.0718  0.5530 -0.0284
12264SOL    HW138233   2.534   1.546   3.480 -1.6094  0.0354  0.9926
12264SOL    HW238234   2.671   1.482   3.483 -0.9072  1.3268 -1.5404
12265SOL     OW38235   3.920   2.398   4.160  0.0171 -0.6706 -0.1466
12265SOL    HW138236   3.886   2.435   4.241  0.3568 -0.4392 -0.1098
12265SOL    HW238237   3.863   2.435   4.091 -0.0106 -0.5395 -0.0542
12266SOL     OW38238   3.289   0.056   3.225 -0.6293  0.4783 -0.3038
12266SOL    HW138239   3.211   0.038   3.277  0.9339 -0.3711  1.8947
12266SOL    HW238240   3.283  -0.005   3.151 -0.5257 -1.8815  1.5289
12267SOL     OW38241   6.072   7.844   2.839 -0.7267 -0.3364 -0.4407
12267SOL    HW138242   6.057   7.751   2.825  0.1092 -0.6672  0.7043
12267SOL    HW238243   6.082   7.881   2.751 -0.1369 -1.4970 -0.8732
12268SOL     OW38244   3.564   1.372   2.029 -0.2594  0.0066 -0.3515
12268SOL    HW138245   3.579   1.280   2.009  0.1046 -0.6076  2.2909
12268SOL    HW238246   3.648   1.404   2.063 -0.6207  1.0451 -0.3982
12269SOL     OW38247   4.524   1.263   4.676 -0.9429  0.4518 -0.2085
12269SOL    HW138248   4.514   1.318   4.598 -2.3059 -0.3267 -0.6202
12269SOL    HW238249   4.571   1.186   4.644  1.8123  1.6661  0.5578
12270SOL     OW38250   4.396   0.845   4.098 -0.6014 -0.1696 -0.2109
12270SOL    HW138251   4.468   0.792   4.064  0.7340  1.5935 -0.3435
12270SOL    HW238252   4.331   0.846   4.028 -0.1233 -0.6509 -0.6684
12271SOL     OW38253   3.845   1.554   4.162  0.1674  0.2980 -0.2103
12271SOL    HW138254   3.870   1.599   4.242  1.4091 -0.8161  0.0635
12271SOL    HW238255   3.768   1.503   4.186  1.2885 -1.0470  0.6761
12272SOL     OW38256   4.362   1.660   4.749  0.3166 -0.3297 -0.4306
12272SOL    HW138257   4.290   1.704   4.702 -0.3491 -1.4589 -0.4959
12272SOL    HW238258   4.358   1.696   4.837 -0.2618 -0.2948 -0.4650
12273SOL     OW38259   4.449   1.724   1.497  0.6445 -0.1072 -0.7997
12273SOL    HW138260   4.398   1.677   1.563 -0.7688  1.2731 -0.8372
12273SOL    HW238261   4.392   1.724   1.419  1.5535 -0.2225 -1.4749
12274SOL     OW38262   5.890   0.797   4.115  0.1287  0.3088 -0.2707
12274SOL    HW138263   5.971   0.776   4.070  0.8515  0.2394  1.0337
12274SOL    HW238264   5.857   0.876   4.071  0.4326 -0.1733 -1.3720
12275SOL     OW38265   5.263   5.966   3.535 -0.0035 -0.1384  0.1603
12275SOL    HW138266   5.252   5.961   3.630 -1.5697 -1.3330 -0.0416
12275SOL    HW238267   5.174   5.965   3.500  0.5465  0.2567 -1.3262
12276SOL     OW38268   4.892   1.089   2.999 -0.3553 -0.3323 -0.1610
12276SOL    HW138269   4.879   1.114   2.907  0.0826 -0.8861 -0.3844
12276SOL    HW238270   4.888   1.171   3.047 -2.4358 -0.2254 -0.4469
12277SOL     OW38271   2.502   0.744   1.606 -0.1315 -0.0858  0.8883
12277SOL    HW138272   2.570   0.785   1.660  0.7093 -1.1609  0.6765
12277SOL    HW238273   2.455   0.817   1.566  0.4655  0.6834  1.5642
12278SOL     OW38274   3.609   1.585   3.360 -0.1612 -0.0724  0.3157
12278SOL    HW138275   3.583   1.512   3.418 -1.4821 -3.2759 -3.8185
12278SOL    HW238276   3.700   1.567   3.338 -0.4486 -0.4880 -0.6016
12279SOL     OW38277   4.158   3.008   3.246 -0.0466  0.6048  0.2629
12279SOL    HW138278   4.152   3.056   3.163 -0.1669 -0.8209 -0.6005
12279SOL    HW238279   4.252   2.999   3.262  0.0189 -0.6319 -0.6787
12280SOL     OW38280   5.366   0.309   1.664  0.3209 -0.3289  0.3434
12280SOL    HW138281   5.408   0.359   1.594 -0.3366 -0.7913 -0.3938
12280SOL    HW238282   5.282   0.281   1.627  0.4983 -1.6375  0.8913
12281SOL     OW38283   3.426   0.853   0.765  0.4922 -0.2694  0.7557
12281SOL    HW138284   3.333   0.870   0.757  0.7177 -0.1577 -3.1793
12281SOL    HW238285   3.468   0.937   0.747  1.3535 -0.8093  0.1621
12282SOL     OW38286   4.542   7.447   0.550  0.6507  0.1040 -0.2923
12282SOL    HW138287   4.497   7.440   0.466 -0.7779  0.5898  0.3969
12282SOL    HW238288   4.566   7.357   0.572  2.2845  0.1098 -1.8303
12283SOL     OW38289   4.476   1.542   4.070  0.2411 -0.7940 -0.2264
12283SOL    HW138290   4.444   1.508   3.986 -1.2522 -0.6548  0.2680
12283SOL    HW238291   4.397   1.558   4.121  1.0736  0.3710  0.7405
12284SOL     OW38292   4.603   1.401   2.451 -0.2677  0.1191 -0.3739
12284SOL    HW138293   4.635   1.417   2.362  1.0021  0.5665  0.1450
12284SOL    HW238294   4.634   1.314   2.473 -1.1370 -0.2572 -0.5907
12285SOL     OW38295   4.251   0.420   5.973 -0.1447  0.8752 -0.1018
12285SOL    HW138296   4.172   0.367   5.964  0.8502 -1.0184  1.4196
12285SOL    HW238297   4.321   0.364   5.939  0.8573  1.4987  0.8747
12286SOL     OW38298   3.543   7.474   2.611 -0.0317 -0.2411 -0.0498
12286SOL    HW138299   3.581   7.538   2.551 -0.1839  1.3511  1.4871
12286SOL    HW238300   3.452   7.465   2.582 -0.6158  1.8713  0.9495
12287SOL     OW38301   4.577   7.849   2.863  0.9420 -0.1384 -0.5932
12287SOL    HW138302   4.549   7.760   2.841  0.9537 -0.6030  1.0979
12287SOL    HW238303   4.671   7.841   2.882  1.0558  0.3395 -0.9392
12288SOL     OW38304   3.734   1.873   1.800 -0.0561 -0.1590  0.0675
12288SOL    HW138305   3.709   1.891   1.710 -0.6752 -0.6913  0.1252
12288SOL    HW238306   3.799   1.803   1.793 -0.4981 -0.5728  0.0598
12289SOL     OW38307   4.038   1.224   2.604  0.1723  0.1567  0.1161
12289SOL    HW138308   4.063   1.224   2.511 -0.5572 -1.5008 -0.0970
12289SOL    HW238309   4.062   1.312   2.634  1.2746  0.4270 -1.4020
12290SOL     OW38310   3.850   1.793   3.711 -0.2232 -0.1469  0.0661
12290SOL    HW138311   3.868   1.761   3.622 -0.3553  0.9823 -0.3858
12290SOL    HW238312   3.935   1.823   3.743 -0.7071  2.7892 -1.0876
12291SOL     OW38313   4.000   1.441   2.320 -0.2373 -0.0399 -0.2785
12291SOL    HW138314   4.089   1.475   2.316 -0.2810  0.1959  0.5751
12291SOL    HW238315   4.010   1.346   2.313  0.1944 -0.1131  1.0953
12292SOL     OW38316   2.110   7.695   2.072 -0.2726  0.0225  0.2767
12292SOL    HW138317   2.145   7.631   2.135 -0.7673 -1.1182 -0.5615
12292SOL    HW238318   2.125   7.654   1.986 -2.7715 -0.0883 -0.1793
12293SOL     OW38319   4.868   1.705   4.195 -0.2336 -0.0808 -0.0498
12293SOL    HW138320   4.777   1.716   4.171 -0.4277  0.0361  0.7173
12293SOL    HW238321   4.885   1.774   4.260  0.1526 -0.6187  0.4387
12294SOL     OW38322   3.865   1.411   2.068 -0.3291  0.8569 -0.4906
12294SOL    HW138323   3.886   1.441   2.157  1.4252  2.4011 -1.3685
12294SOL    HW238324   3.950   1.402   2.025 -1.1252 -0.2925 -1.9102
12295SOL     OW38325   4.321   1.529   2.286  0.0129  0.0054 -0.6246
12295SOL    HW138326   4.360   1.478   2.215  0.6814  1.0499 -1.0389
12295SOL    HW238327   4.354   1.618   2.272 -1.5918  0.6786 -0.2787
12296SOL     OW38328   5.044   1.674   3.105  0.0649 -0.2390 -0.3391
12296SOL    HW138329   4.965   1.724   3.125  0.9856  0.5553  1.6274
12296SOL    HW238330   5.058   1.688   3.011 -2.0744 -0.3892 -0.7404
12297SOL     OW38331   3.837   7.122   2.762 -0.2046 -0.7025 -0.8603
12297SOL    HW138332   3.772   7.192   2.764  0.0016 -0.5290  0.1691
12297SOL    HW238333   3.918   7.164   2.789 -0.1603 -1.4218  0.1635
12298SOL     OW38334   3.172   1.921   3.405 -0.0326  0.7727 -0.2238
12298SOL    HW138335   3.202   1.887   3.321  0.8846  1.0550 -0.0186
12298SOL    HW238336   3.240   1.982   3.433 -0.7046  1.2788  0.3562
12299SOL     OW38337   5.106   3.093   4.337 -0.0446  0.0865 -0.2824
12299SOL    HW138338   5.090   3.145   4.416  2.8017 -0.6297  0.8848
12299SOL    HW238339   5.170   3.143   4.287  1.3368 -1.3862 -0.0524
12300SOL     OW38340   4.239   7.077   1.015  0.0324  0.8480 -0.0392
12300SOL    HW138341   4.202   7.159   0.984 -1.2249  1.7393  3.3976
12300SOL    HW238342   4.172   7.040   1.072  2.2510 -0.3236  1.9824
12301SOL     OW38343   4.609   0.305   4.397  0.1899 -0.1476  0.1859
12301SOL    HW138344   4.600   0.379   4.336  0.5230  0.4529  0.8455
12301SOL    HW238345   4.698   0.274   4.386 -0.6766 -2.1445 -1.9378
12302SOL     OW38346   6.442   2.143   2.847  0.5220 -0.7980  0.4623
12302SOL    HW138347   6.459   2.181   2.933 -0.9096  0.9187  0.0644
12302SOL    HW238348   6.371   2.080   2.862 -1.5814  1.3720  0.2504
12303SOL     OW38349   5.484   0.805   1.375  0.2038  0.3065  0.4091
12303SOL    HW138350   5.529   0.879   1.336 -2.8550  1.3263 -1.5117
12303SOL    HW238351   5.466   0.746   1.302  0.3775 -1.1484  1.4914
12304SOL     OW38352   5.531   2.217   2.455  0.2582 -0.0943 -0.1932
12304SOL    HW138353   5.553   2.179   2.541  0.5064 -0.6410 -0.4916
12304SOL    HW238354   5.526   2.311   2.471  0.1840 -0.2011  0.4499
12305SOL     OW38355   3.580   1.642   0.981 -0.4179 -0.1704 -0.2967
12305SOL    HW138356   3.524   1.576   1.023 -0.5878 -0.5807 -1.1455
12305SOL    HW238357   3.567   1.628   0.888  1.0851 -0.2590 -0.5222
12306SOL     OW38358   3.081   0.929   2.449 -0.0275 -0.6596  0.1511
12306SOL    HW138359   3.098   1.023   2.452  0.8344 -0.8078  0.1844
12306SOL    HW238360   3.164   0.891   2.422 -0.6580 -1.3331 -0.9190
12307SOL     OW38361   6.427   0.033   1.261 -0.0289  0.5588 -0.1835
12307SOL    HW138362   6.458   0.089   1.332  0.1956  0.2400 -0.0216
12307SOL    HW238363   6.353  -0.014   1.298  1.1936 -0.9588  0.4746
12308SOL     OW38364   5.265   7.225   3.561  0.0680 -0.5196 -0.0487
12308SOL    HW138365   5.335   7.277   3.523 -0.0239 -0.5956 -0.3221
12308SOL    HW238366   5.251   7.264   3.648  0.0420 -0.1277 -0.2283
12309SOL     OW38367   3.134   2.447   5.386  0.1358 -0.2442  0.3289
12309SOL    HW138368   3.187   2.526   5.394 -0.2168 -0.1104  1.5747
12309SOL    HW238369   3.043   2.478   5.393 -0.1513 -0.4675 -1.7982
12310SOL     OW38370   5.399   2.208   2.193 -0.1244  0.5697  0.0254
12310SOL    HW138371   5.310   2.177   2.210  0.3400 -1.0087 -0.2434
12310SOL    HW238372   5.444   2.195   2.276  0.4875 -1.0768 -0.5218
12311SOL     OW38373   4.871   1.112   1.561 -0.3954 -0.0936 -0.2612
12311SOL    HW138374   4.898   1.162   1.484 -0.7861 -0.2175 -0.4812
12311SOL    HW238375   4.827   1.176   1.618 -0.4174 -0.0757 -0.2987
12312SOL     OW38376   3.570   0.370   1.197  0.7605  0.6375  0.4888
12312SOL    HW138377   3.548   0.326   1.279 -0.2489 -0.1941 -0.2033
12312SOL    HW238378   3.524   0.454   1.202  1.6869  1.1132  1.2810
12313SOL     OW38379   4.527   2.847   3.652 -0.2977  0.0559 -0.1313
12313SOL    HW138380   4.613   2.859   3.690  0.5109 -1.4643 -1.3619
12313SOL    HW238381   4.470   2.824   3.725  0.4972  0.3344  0.5800
12314SOL     OW38382   5.600   7.569   1.666  0.3387  0.6396  1.0716
12314SOL    HW138383   5.653   7.603   1.738  3.0248  0.5386 -0.7065
12314SOL    HW238384   5.598   7.640   1.602  1.1696 -0.4814 -0.2743
12315SOL     OW38385   5.428   2.255   1.397 -0.2167 -0.6113 -0.4002
12315SOL    HW138386   5.425   2.205   1.478  1.3881  0.5233  0.4243
12315SOL    HW238387   5.365   2.212   1.339 -0.2370 -2.4165  0.8930
12316SOL     OW38388   4.361   0.773   4.803  0.3243 -0.8613 -0.1950
12316SOL    HW138389   4.303   0.713   4.757 -0.8700 -0.6470  0.9852
12316SOL    HW238390   4.411   0.815   4.733  0.1674 -2.1563 -1.1368
12317SOL     OW38391   4.366   0.773   2.655  0.1687  0.0047 -0.4439
12317SOL    HW138392   4.407   0.813   2.732  0.8639 -0.9322 -0.3137
12317SOL    HW238393   4.275   0.759   2.681  0.2419  0.2782 -0.0264
12318SOL     OW38394   3.477   0.233   3.077 -0.4640 -0.6899 -0.3130
12318SOL    HW138395   3.427   0.174   3.134 -1.3661  0.9179  0.6218
12318SOL    HW238396   3.420   0.309   3.065  0.9299  0.3009 -0.9193
12319SOL     OW38397   4.499   7.878   4.194 -0.4981  0.3291  0.2346
12319SOL    HW138398   4.490   7.933   4.271 -1.8006 -0.2692  0.5423
12319SOL    HW238399   4.456   7.796   4.218 -0.3722 -0.0917 -0.9038
12320SOL     OW38400   4.557   0.501   4.186  0.6776 -0.0524  0.0249
12320SOL    HW138401   4.540   0.524   4.094  2.4694 -2.3701 -1.0059
12320SOL    HW238402   4.651   0.512   4.196  0.4730  0.4269  1.7212
12321SOL     OW38403   6.589   6.231   2.045  0.3521  0.6364 -0.0813
12321SOL    HW138404   6.611   6.319   2.012 -0.4500  0.4039 -1.2769
12321SOL    HW238405   6.629   6.171   1.982 -0.2474  0.1680 -0.0230
12322SOL     OW38406   5.712   7.502   0.404 -0.4185 -0.2336  0.1902
12322SOL    HW138407   5.649   7.475   0.336 -0.0933  1.7211 -0.9597
12322SOL    HW238408   5.679   7.586   0.435  0.3257 -0.3526  1.3412
12323SOL     OW38409   6.683   7.622   3.628 -0.4123  0.1928 -0.0854
12323SOL    HW138410   6.741   7.697   3.618 -0.6845  0.5965  1.1024
12323SOL    HW238411   6.610   7.655   3.681 -0.3385 -0.9934  0.8136
12324SOL     OW38412   2.291   3.286   2.581  0.4880 -0.0021 -0.1767
12324SOL    HW138413   2.341   3.270   2.661 -0.2164  0.4159  0.3582
12324SOL    HW238414   2.240   3.207   2.568 -0.3140  0.3878  0.4823
12325SOL     OW38415   4.678   1.006   4.965  0.2801 -0.8670 -0.1359
12325SOL    HW138416   4.680   0.995   4.870 -0.5804 -2.0576 -0.0452
12325SOL    HW238417   4.604   0.951   4.994  0.2757 -0.2090  1.1762
12326SOL     OW38418   3.896   0.617   1.656 -0.3398  0.0444  0.5421
12326SOL    HW138419   3.846   0.576   1.727 -1.6137 -3.0238 -1.8561
12326SOL    HW238420   3.982   0.576   1.660 -0.4949 -0.3249  0.2185
12327SOL     OW38421   4.391   0.587   1.652 -0.4354 -0.0118  0.4294
12327SOL    HW138422   4.357   0.667   1.611 -2.4067 -1.6421 -1.3963
12327SOL    HW238423   4.312   0.537   1.674  0.7514 -1.8103  0.7341
12328SOL     OW38424   4.287   0.488   4.346 -0.0028  0.2452  0.5340
12328SOL    HW138425   4.258   0.577   4.363  0.6600  0.5053  0.3196
12328SOL    HW238426   4.382   0.495   4.333  0.1574 -0.5770  1.1539
12329SOL     OW38427   4.712   7.678   1.311  0.7182  0.4904  0.2374
12329SOL    HW138428   4.734   7.591   1.279 -1.4727 -0.4999  1.1979
12329SOL    HW238429   4.778   7.697   1.378  1.4639 -0.2359 -0.2748
12330SOL     OW38430   4.122   1.810   1.589 -0.1840  0.1011 -0.0669
12330SOL    HW138431   4.136   1.880   1.653  0.1757  1.4721 -1.6017
12330SOL    HW238432   4.142   1.850   1.505 -1.1078 -1.5340 -1.1036
12331SOL     OW38433   3.394   2.446   2.348  0.0924  0.1951 -0.5578
12331SOL    HW138434   3.319   2.392   2.324 -0.1562  0.4750 -0.4169
12331SOL    HW238435   3.400   2.512   2.279  0.9978 -0.5972 -1.2588
12332SOL     OW38436   5.056   2.179   3.949  0.1916 -0.2384 -0.3921
12332SOL    HW138437   5.081   2.100   3.997  2.4399 -1.0035 -2.6116
12332SOL    HW238438   5.055   2.248   4.015  1.5753 -1.5009  1.0292
12333SOL     OW38439   4.849   1.452   1.950 -0.2460  0.1319  0.6660
12333SOL    HW138440   4.913   1.471   2.019 -0.0829  1.2890  0.2251
12333SOL    HW238441   4.786   1.524   1.956 -1.2274 -0.7098  0.7484
12334SOL     OW38442   3.596   2.306   2.039  0.2563  0.3734  0.3140
12334SOL    HW138443   3.583   2.318   2.133  0.5994  2.0256  0.1971
12334SOL    HW238444   3.674   2.359   2.020  0.3062 -0.1052 -0.8729
12335SOL     OW38445   4.898   1.208   4.336  0.3752  0.0016 -0.1435
12335SOL    HW138446   4.855   1.196   4.251 -1.7278  1.0165  0.6986
12335SOL    HW238447   4.909   1.120   4.370 -0.4756 -0.3327 -0.6938
12336SOL     OW38448   5.169   0.169   3.691  1.3184 -0.2486  0.1839
12336SOL    HW138449   5.182   0.242   3.751  0.6332  0.3349 -0.3593
12336SOL    HW238450   5.207   0.094   3.736 -1.4335 -0.4009  2.5193
12337SOL     OW38451   5.242   1.805   3.826  0.1587 -0.5410 -0.2002
12337SOL    HW138452   5.207   1.894   3.824  1.5375  0.0569  0.7182
12337SOL    HW238453   5.167   1.750   3.849 -0.0725  0.8077  2.7231
12338SOL     OW38454   4.577   1.295   1.089 -0.1311  0.2523 -0.0880
12338SOL    HW138455   4.624   1.361   1.039 -0.3145  0.1552 -0.3941
12338SOL    HW238456   4.624   1.289   1.172  0.8792 -0.4060 -0.6846
12339SOL     OW38457   5.327   7.395   2.602  0.8997  0.2574 -0.3629
12339SOL    HW138458   5.320   7.465   2.537  3.3763 -0.8600 -1.9805
12339SOL    HW238459   5.411   7.410   2.645  0.8633 -0.9677  0.1898
12340SOL     OW38460   6.382   1.255   4.209  0.3974 -0.3215 -0.6502
12340SOL    HW138461   6.353   1.304   4.286 -0.8583  0.2534 -1.4674
12340SOL    HW238462   6.473   1.232   4.229 -0.2560 -1.3431  1.5986
12341SOL     OW38463   4.019   2.253   2.206  0.5330 -0.3247  0.3383
12341SOL    HW138464   3.929   2.228   2.185  0.5264 -0.4532  0.5147
12341SOL    HW238465   4.018   2.349   2.210  0.3841 -0.3304  0.4299
12342SOL     OW38466   4.375   1.042   5.212 -0.1290  0.4548  0.0659
12342SOL    HW138467   4.280   1.030   5.208 -0.4385  2.5903 -0.4232
12342SOL    HW238468   4.411   0.977   5.152 -1.4819  1.1724 -1.5814
12343SOL     OW38469   5.143   1.129   2.531  0.1346  0.2710 -0.2265
12343SOL    HW138470   5.171   1.076   2.456  1.7035  0.2486  0.3324
12343SOL    HW238471   5.106   1.065   2.592  0.9084 -0.0242 -0.0583
12344SOL     OW38472   5.679   0.585   0.561 -0.1881 -0.4423 -0.2636
12344SOL    HW138473   5.688   0.552   0.472 -0.8923  1.4479 -1.0979
12344SOL    HW238474   5.750   0.543   0.610  1.4066 -0.0826 -2.1567
12345SOL     OW38475   2.889   0.736   3.869 -0.3313 -0.0533 -0.0992
12345SOL    HW138476   2.834   0.666   3.833 -0.5661  0.1784 -0.1940
12345SOL    HW238477   2.852   0.816   3.833 -0.1181  0.1278  0.0824
12346SOL     OW38478   5.659   1.735   1.603  0.4729  0.1223  0.1867
12346SOL    HW138479   5.586   1.780   1.561  0.7406 -0.2312 -0.6741
12346SOL    HW238480   5.619   1.660   1.647  0.5745 -1.6547 -2.5417
12347SOL     OW38481   2.735   0.903   4.643  0.0610  0.1970  0.3073
12347SOL    HW138482   2.798   0.935   4.708 -2.0015  0.2826  2.3906
12347SOL    HW238483   2.737   0.807   4.653 -0.3853  0.2202  0.6283
12348SOL     OW38484   4.983   0.709   1.191  0.4895  0.3100 -0.4282
12348SOL    HW138485   5.008   0.795   1.158 -0.8382  0.9756  0.1943
12348SOL    HW238486   5.024   0.704   1.277 -0.3517  0.8423  0.0283
12349SOL     OW38487   6.797   7.721   1.665  0.0178 -0.6042  0.4364
12349SOL    HW138488   6.769   7.772   1.590 -0.4581 -1.4362  0.0304
12349SOL    HW238489   6.892   7.733   1.669 -0.1142  0.4838  0.4981
12350SOL     OW38490   6.403   3.167   2.450 -0.2460  0.0827 -0.3227
12350SOL    HW138491   6.338   3.098   2.438 -0.5588  0.4632 -0.8468
12350SOL    HW238492   6.420   3.200   2.362 -0.0380  0.6174 -0.0881
12351SOL     OW38493   3.353   0.957   2.707  0.1020  0.1335 -0.1499
12351SOL    HW138494   3.410   1.007   2.765 -0.1915 -0.4182  0.6420
12351SOL    HW238495   3.412   0.915   2.645  0.4983  0.1204  0.2311
12352SOL     OW38496   5.402   1.845   1.507  0.3181 -0.4750  0.0656
12352SOL    HW138497   5.349   1.868   1.430  1.4950 -0.3371 -0.7286
12352SOL    HW238498   5.354   1.773   1.548  0.3585 -1.5036 -1.5935
12353SOL     OW38499   5.287   7.722   4.543  0.2517  0.3959 -0.5531
12353SOL    HW138500   5.201   7.683   4.555 -0.0372  0.5061 -2.0025
12353SOL    HW238501   5.318   7.686   4.460  0.8820  1.6118 -0.8762
12354SOL     OW38502   5.266   1.155   1.628 -0.3544 -0.4551  0.1034
12354SOL    HW138503   5.253   1.103   1.707  0.9033  0.5898  1.0632
12354SOL    HW238504   5.188   1.139   1.575 -2.0305  0.0212  2.2509
12355SOL     OW38505   5.318   1.814   2.783 -0.6727  0.0187 -0.2386
12355SOL    HW138506   5.274   1.871   2.719 -1.6283 -0.8732 -0.4134
12355SOL    HW238507   5.297   1.853   2.868 -0.1514  0.7048 -0.4173
12356SOL     OW38508   2.911   1.361   2.631  0.1270  0.6931  0.1312
12356SOL    HW138509   2.909   1.454   2.651 -2.1119  0.9067 -0.7167
12356SOL    HW238510   2.909   1.357   2.535 -1.0611 -0.1623  0.1574
12357SOL     OW38511   4.859   0.849   0.859 -0.3801  0.2111 -0.6444
12357SOL    HW138512   4.904   0.900   0.792  1.2620 -0.6719 -0.2726
12357SOL    HW238513   4.796   0.909   0.897  0.8065  1.6635 -0.8891
12358SOL     OW38514   4.931   1.490   1.654  0.1545  0.2654 -0.0949
12358SOL    HW138515   4.863   1.480   1.721 -0.0659  0.1927 -0.3317
12358SOL    HW238516   5.013   1.471   1.701  0.1728  1.8155  0.5553
12359SOL     OW38517   5.773   1.667   3.089  0.2347  0.5272  0.2121
12359SOL    HW138518   5.814   1.727   3.151 -0.9205  1.6185 -0.0315
12359SOL    HW238519   5.784   1.710   3.004 -0.2476  0.2119 -0.0163
12360SOL     OW38520   5.837   0.389   3.136 -0.6560  0.4887 -0.1600
12360SOL    HW138521   5.913   0.410   3.191 -0.6721  0.4769 -0.1334
12360SOL    HW238522   5.773   0.353   3.197 -0.9670  1.1973 -0.0577
12361SOL     OW38523   4.139   1.721   2.817 -0.0639  0.2629  0.2014
12361SOL    HW138524   4.154   1.712   2.723 -0.1953 -1.2528  0.3063
12361SOL    HW238525   4.223   1.750   2.852 -0.1605  1.3595 -0.4320
12362SOL     OW38526   5.448   0.941   3.884 -0.7030  0.4605  0.0178
12362SOL    HW138527   5.408   1.015   3.838 -3.0650  0.0084  1.2105
12362SOL    HW238528   5.447   0.870   3.820 -0.5236  0.8257 -0.4004
12363SOL     OW38529   4.169   0.856   5.704  0.3638 -0.1975 -0.0094
12363SOL    HW138530   4.106   0.838   5.774  0.7074 -0.3577  0.2657
12363SOL    HW238531   4.224   0.777   5.700 -0.7637 -0.9570 -1.6878
12364SOL     OW38532   4.495   0.295   3.156 -0.2550 -0.4558 -0.2919
12364SOL    HW138533   4.553   0.219   3.164 -0.4333 -0.6746 -1.0168
12364SOL    HW238534   4.532   0.346   3.084 -0.0590  0.2263  0.2780
12365SOL     OW38535   2.853   1.575   5.377 -0.5051  0.4276  0.0056
12365SOL    HW138536   2.799   1.501   5.403 -1.6184  0.5935 -1.6613
12365SOL    HW238537   2.791   1.643   5.351  0.4757  0.8687 -1.3406
12366SOL     OW38538   3.639   1.750   4.022  0.3829  0.2528  0.2898
12366SOL    HW138539   3.580   1.743   4.096  1.1313  0.1015  0.8904
12366SOL    HW238540   3.726   1.730   4.059  0.6229 -0.9089 -0.8346
12367SOL     OW38541   3.512   1.160   4.469  0.3047 -0.1209 -0.5649
12367SOL    HW138542   3.518   1.204   4.384 -0.1838  1.9259  0.4122
12367SOL    HW238543   3.420   1.135   4.476  0.3749 -0.4209 -0.6831
12368SOL     OW38544   5.270   0.527   4.135  0.1088  0.3103  0.0573
12368SOL    HW138545   5.254   0.621   4.128 -0.3748  0.2497  0.3149
12368SOL    HW238546   5.324   0.506   4.058 -1.2732  0.4832 -0.9844
12369SOL     OW38547   4.309   1.831   5.524 -0.2322 -0.5482 -0.4187
12369SOL    HW138548   4.317   1.835   5.619 -1.4275 -0.2776 -0.3184
12369SOL    HW238549   4.399   1.842   5.492  0.1168 -0.1670  0.6590
12370SOL     OW38550   5.617   0.132   6.576  0.3087 -0.4358  0.2254
12370SOL    HW138551   5.590   0.054   6.528 -1.4361 -0.2203  0.7539
12370SOL    HW238552   5.643   0.195   6.509 -1.0831 -0.4937 -0.3974
12371SOL     OW38553   4.502   0.058   5.267 -0.4924 -0.0749 -0.2986
12371SOL    HW138554   4.485   0.125   5.201 -0.4883  1.6385  1.3459
12371SOL    HW238555   4.585   0.018   5.240  0.6376  2.0746 -0.2176
12372SOL     OW38556   6.027   1.731   5.467 -0.2334  0.2372  0.7357
12372SOL    HW138557   5.952   1.770   5.513 -0.0939 -0.2288  1.3730
12372SOL    HW238558   6.102   1.751   5.523  0.3696  1.9864 -0.6257
12373SOL     OW38559   3.135   7.591   5.876  0.4569 -0.3825 -0.5082
12373SOL    HW138560   3.218   7.550   5.901 -0.2338 -1.8256 -0.5002
12373SOL    HW238561   3.099   7.533   5.809 -0.6557  0.0998 -0.3493
12374SOL     OW38562   3.584   0.310   4.992  0.4972 -0.3126  0.6850
12374SOL    HW138563   3.602   0.320   5.085  0.8195 -0.7991  0.6745
12374SOL    HW238564   3.665   0.275   4.955  0.2947 -0.3421  0.2604
12375SOL     OW38565   4.671   0.015   5.721  0.0833 -0.2730 -0.6908
12375SOL    HW138566   4.581   0.010   5.754  0.4377  2.0117  0.8243
12375SOL    HW238567   4.711  -0.068   5.748 -0.3036  0.5429  2.8822
12376SOL     OW38568   4.089   0.974   5.212  0.0326 -0.1834  0.6771
12376SOL    HW138569   4.059   0.971   5.303  0.5085 -0.4122  0.8309
12376SOL    HW238570   4.018   0.936   5.162 -0.5719  0.6815  0.8638
12377SOL     OW38571   3.042   3.403   5.704 -0.7053 -0.9171 -0.2068
12377SOL    HW138572   3.109   3.390   5.637 -1.6134  1.7055 -1.7585
12377SOL    HW238573   3.082   3.463   5.767 -1.4173  0.4850 -1.0260
12378SOL     OW38574   4.229   2.284   6.892 -0.4326  1.0192  0.1356
12378SOL    HW138575   4.314   2.242   6.880 -0.0868  1.7976 -0.2213
12378SOL    HW238576   4.243   2.374   6.864 -0.9790  1.5656  1.5285
12379SOL     OW38577   4.843   7.689   4.368 -0.2871  0.6985 -0.3840
12379SOL    HW138578   4.921   7.745   4.364 -0.7560  1.3419 -0.5865
12379SOL    HW238579   4.830   7.660   4.278 -0.6514  1.1121 -0.4689
12380SOL     OW38580   3.896   1.169   5.375  0.4130  0.0311 -0.3938
12380SOL    HW138581   3.958   1.240   5.359 -0.8681  1.0916 -0.7991
12380SOL    HW238582   3.833   1.205   5.438 -1.3798 -0.0419 -2.0630
12381SOL     OW38583   5.337   2.084   6.257  0.3189 -0.1665 -0.2683
12381SOL    HW138584   5.267   2.049   6.312 -0.4320 -0.0011 -1.0975
12381SOL    HW238585   5.313   2.175   6.241 -0.1592 -0.5438 -1.8971
12382SOL     OW38586   6.414   7.655   0.752  0.3164 -0.0780  0.5370
12382SOL    HW138587   6.429   7.631   0.661  0.8930  0.5070  0.4641
12382SOL    HW238588   6.330   7.616   0.775  0.7024 -1.1853  0.1018
12383SOL     OW38589   6.774   6.420   5.485 -0.2412  0.1209  0.1469
12383SOL    HW138590   6.693   6.374   5.464 -0.7528  1.1351 -0.1502
12383SOL    HW238591   6.762   6.508   5.449 -0.5285  1.4944  3.2578
12384SOL     OW38592   3.732   0.052   5.670  0.2661 -0.4156  0.0078
12384SOL    HW138593   3.647   0.096   5.663 -0.4461 -1.9067 -2.2132
12384SOL    HW238594   3.795   0.117   5.640 -0.3215  0.1743  0.0212
12385SOL     OW38595   5.114   2.072   4.341 -0.2233  0.1087 -0.3182
12385SOL    HW138596   5.022   2.074   4.314 -0.5509  2.5688  0.6749
12385SOL    HW238597   5.112   2.049   4.434  0.0207  1.4748  0.0435
12386SOL     OW38598   2.765   2.226   3.278 -0.5291  0.5613  0.2363
12386SOL    HW138599   2.695   2.283   3.307 -0.8081  0.0741  0.5224
12386SOL    HW238600   2.734   2.191   3.194 -0.8078  0.0291  0.5592
12387SOL     OW38601   5.435   0.167   4.756  0.7185 -0.5847  0.3969
12387SOL    HW138602   5.419   0.080   4.793  0.5251 -0.3272  0.9293
12387SOL    HW238603   5.515   0.197   4.798 -0.1180  0.1863  1.5178
12388SOL     OW38604   4.186   0.130   4.225  0.4821  0.1659 -0.2165
12388SOL    HW138605   4.201   0.090   4.310  0.8559 -5.0706 -2.4098
12388SOL    HW238606   4.273   0.143   4.188  0.2659  0.0328 -0.7770
12389SOL     OW38607   3.916   0.418   6.565 -0.4446  0.0411  0.4716
12389SOL    HW138608   3.878   0.431   6.652 -1.3521  1.0664 -0.0427
12389SOL    HW238609   3.989   0.479   6.561 -1.8071  1.7127 -0.2594
12390SOL     OW38610   3.158   1.492   6.360  0.6156 -0.1552 -0.2495
12390SOL    HW138611   3.200   1.463   6.280  2.1511  2.5213 -0.5553
12390SOL    HW238612   3.207   1.449   6.430 -1.7598 -3.7976 -0.6061
12391SOL     OW38613   6.505   7.794   5.846  0.6559 -0.8605 -0.3684
12391SOL    HW138614   6.527   7.710   5.807 -0.9838 -1.3967 -0.2031
12391SOL    HW238615   6.518   7.782   5.939 -1.7936 -1.7376 -0.0647
12392SOL     OW38616   2.156   0.634   6.348 -0.7566 -0.2080  0.0592
12392SOL    HW138617   2.189   0.545   6.348 -2.4643 -0.9128 -1.2461
12392SOL    HW238618   2.167   0.664   6.258  0.3696  1.1636  0.6175
12393SOL     OW38619   4.372   0.273   5.453 -0.7245 -0.4117  0.2782
12393SOL    HW138620   4.462   0.288   5.482 -0.6807  0.5130 -0.2888
12393SOL    HW238621   4.372   0.185   5.416  0.0925 -0.1958 -0.2456
12394SOL     OW38622   5.301   1.462   5.818 -0.1764  0.7493 -0.4535
12394SOL    HW138623   5.258   1.378   5.805  1.2090 -0.3216  1.3860
12394SOL    HW238624   5.236   1.516   5.863 -0.4843  0.0560 -0.0522
12395SOL     OW38625   4.702   1.814   5.086 -0.3182  0.5378 -0.1191
12395SOL    HW138626   4.751   1.732   5.079 -0.8568  0.1346  0.6442
12395SOL    HW238627   4.756   1.879   5.041  0.4073 -0.1114 -0.1949
12396SOL     OW38628   4.396   0.813   6.476  0.4959  0.0583  0.2217
12396SOL    HW138629   4.427   0.747   6.538  0.8603 -2.6818 -2.5907
12396SOL    HW238630   4.308   0.835   6.506  0.6842 -1.1084  1.7459
12397SOL     OW38631   4.734   1.194   5.532 -0.0610 -0.3374  0.5558
12397SOL    HW138632   4.645   1.219   5.511  0.6521  2.4259  0.5173
12397SOL    HW238633   4.789   1.260   5.490  2.0387 -1.9146  0.6069
12398SOL     OW38634   5.365   1.748   5.408 -0.4456 -0.0512  0.2290
12398SOL    HW138635   5.394   1.687   5.476 -1.9169  0.1346  1.0489
12398SOL    HW238636   5.428   1.735   5.336 -0.3308 -2.0540  0.6414
12399SOL     OW38637   5.002   6.382   4.922  0.6881  0.0420 -0.3699
12399SOL    HW138638   4.969   6.292   4.921  1.9124 -0.4499  0.4657
12399SOL    HW238639   5.097   6.371   4.923  0.8804  1.2839  2.3278
12400SOL     OW38640   6.252   0.790   4.179 -0.3483  0.1634 -0.1641
12400SOL    HW138641   6.197   0.841   4.120 -0.4134 -1.6960 -1.8168
12400SOL    HW238642   6.219   0.701   4.171 -0.1445 -0.2208  2.5069
12401SOL     OW38643   3.628   0.836   4.730  0.2069  0.1428 -0.6173
12401SOL    HW138644   3.675   0.784   4.795 -0.5220 -0.2742 -0.4067
12401SOL    HW238645   3.672   0.921   4.730  1.3760 -0.4486 -0.9215
12402SOL     OW38646   5.368   1.134   6.219  0.4033 -0.4159 -0.1652
12402SOL    HW138647   5.453   1.089   6.225 -0.1070 -1.2766  1.2064
12402SOL    HW238648   5.391   1.227   6.218  1.3856 -0.6363  0.0514
12403SOL     OW38649   6.843   0.043   4.040 -0.2711  0.6827 -0.0457
12403SOL    HW138650   6.838  -0.008   3.959 -1.4274  0.4819  0.1465
12403SOL    HW238651   6.937   0.058   4.052 -0.0943  1.1939 -1.7153
12404SOL     OW38652   4.939   1.894   5.567  0.0365 -0.7280 -0.3124
12404SOL    HW138653   5.034   1.905   5.578 -0.1805  2.4494 -0.6552
12404SOL    HW238654   4.905   1.894   5.656  0.3634 -3.1618 -0.1117
12405SOL     OW38655   4.262   1.492   5.650  0.6229  0.4333  0.0207
12405SOL    HW138656   4.269   1.518   5.558 -0.2373  0.2168 -0.1060
12405SOL    HW238657   4.350   1.507   5.685  0.5518  2.1010 -0.4193
12406SOL     OW38658   4.668   2.632   4.043 -0.4113  0.4421 -0.1947
12406SOL    HW138659   4.673   2.566   4.112 -0.4790  1.4377  0.7931
12406SOL    HW238660   4.591   2.684   4.065 -0.4999  0.7082 -1.0942
12407SOL     OW38661   4.956   1.628   5.037  0.5705  0.5092 -0.3459
12407SOL    HW138662   5.010   1.650   5.113  1.1422  2.1068 -1.1691
12407SOL    HW238663   5.010   1.651   4.962 -0.2339 -0.4479 -1.2343
12408SOL     OW38664   5.531   2.399   6.483 -0.0859  0.2785 -0.4410
12408SOL    HW138665   5.578   2.430   6.406  0.1893  0.5885 -0.1529
12408SOL    HW238666   5.459   2.347   6.448 -0.7591  1.5163 -0.9551
12409SOL     OW38667   5.114   7.796   3.922  0.1319 -0.2060  0.2830
12409SOL    HW138668   5.021   7.785   3.901  0.3207  0.9177 -1.3476
12409SOL    HW238669   5.121   7.773   4.014 -1.6337 -1.0231  0.2537
12410SOL     OW38670   5.965   0.655   5.614 -0.8143 -0.6976 -0.1058
12410SOL    HW138671   5.947   0.561   5.608 -1.8481 -0.7064  1.9874
12410SOL    HW238672   6.004   0.666   5.701  0.0016  0.7324 -0.6202
12411SOL     OW38673   7.593   7.304   3.982  0.2092  0.4745  0.2777
12411SOL    HW138674   7.561   7.276   3.896 -0.3907 -1.1278  0.9811
12411SOL    HW238675   7.677   7.346   3.965  0.3656 -0.3376 -1.0408
12412SOL     OW38676   3.777   7.014   5.710  0.0881 -0.2942 -0.7426
12412SOL    HW138677   3.716   7.089   5.710  0.7981  0.2935 -0.0697
12412SOL    HW238678   3.722   6.939   5.688 -1.1068  0.0645  0.8226
12413SOL     OW38679   4.811   1.253   4.053  0.3024 -0.5351  0.5362
12413SOL    HW138680   4.755   1.295   4.118  0.4089 -0.0046  0.2899
12413SOL    HW238681   4.866   1.324   4.019 -1.0150 -0.4143 -1.4961
12414SOL     OW38682   5.320   3.205   4.195 -0.2071 -0.7752 -0.6074
12414SOL    HW138683   5.320   3.295   4.162 -1.1756 -0.0682  1.1969
12414SOL    HW238684   5.408   3.172   4.175  0.7656  1.1723  0.2213
12415SOL     OW38685   5.656   0.589   4.168  0.3189 -0.2695  0.3343
12415SOL    HW138686   5.668   0.656   4.101  0.8982 -1.3608 -0.7167
12415SOL    HW238687   5.608   0.632   4.238 -0.0808  0.9870 -0.6804
12416SOL     OW38688   4.576   2.179   5.434  0.1310 -0.1825  0.1280
12416SOL    HW138689   4.643   2.195   5.367 -0.1546 -0.3586 -0.2045
12416SOL    HW238690   4.497   2.220   5.399  0.0111 -0.1547  0.4256
12417SOL     OW38691   7.198   0.220   5.510  0.4746 -0.1899 -0.0267
12417SOL    HW138692   7.124   0.255   5.461 -0.2044 -0.9587  0.4404
12417SOL    HW238693   7.242   0.298   5.545 -0.1438  0.2645 -0.2403
12418SOL     OW38694   3.422   2.024   3.852  0.2425  0.0578  0.1008
12418SOL    HW138695   3.427   2.087   3.924  0.3081  2.4538 -1.8708
12418SOL    HW238696   3.500   1.970   3.862  0.8519  1.0893  1.1446
12419SOL     OW38697   3.894   2.394   7.187 -0.0684  0.7119  0.2122
12419SOL    HW138698   3.831   2.394   7.259 -0.5835  0.0194 -0.2237
12419SOL    HW238699   3.913   2.486   7.172 -0.5456  0.8998  0.7234
12420SOL     OW38700   4.230   3.289   3.465  0.1414 -0.2036  0.6605
12420SOL    HW138701   4.280   3.366   3.440 -0.8106 -0.1382 -1.1847
12420SOL    HW238702   4.294   3.231   3.507  1.7005  0.0382 -1.2356
12421SOL     OW38703   4.416   1.154   7.833 -0.0456  0.2974  0.0434
12421SOL    HW138704   4.391   1.181   7.921 -0.3176  1.1398 -0.2838
12421SOL    HW238705   4.354   1.199   7.775  0.8600  0.6971 -0.6449
12422SOL     OW38706   4.663   0.733   4.411  0.5750 -0.2755  0.4000
12422SOL    HW138707   4.611   0.687   4.477  0.5250 -0.2791  0.3580
12422SOL    HW238708   4.754   0.712   4.434  0.6881  1.3495  1.7057
12423SOL     OW38709   3.398   1.158   7.301 -0.0700 -0.2187  0.1864
12423SOL    HW138710   3.393   1.072   7.260  0.5337  0.2647 -0.9668
12423SOL    HW238711   3.444   1.143   7.383 -0.4539 -1.0769  0.2553
12424SOL     OW38712   5.590   7.578   4.625  0.2242  0.5413  0.4757
12424SOL    HW138713   5.514   7.535   4.585  0.0860  0.4406  0.8438
12424SOL    HW238714   5.558   7.611   4.709 -0.0239  2.4818 -0.3228
12425SOL     OW38715   2.846   3.316   4.637 -0.2290  0.3049 -0.1029
12425SOL    HW138716   2.901   3.384   4.598 -0.5307  0.7610  0.2545
12425SOL    HW238717   2.841   3.247   4.570 -1.4898  1.4607 -1.2725
12426SOL     OW38718   3.822   2.386   5.409 -0.5650 -0.3203 -0.2061
12426SOL    HW138719   3.820   2.421   5.320 -0.6629 -0.8291 -0.4030
12426SOL    HW238720   3.915   2.377   5.429 -0.5149  0.6704  0.0969
12427SOL     OW38721   3.733   7.471   4.626 -0.4718  0.0355  0.4175
12427SOL    HW138722   3.657   7.422   4.595  0.3181 -0.7306 -0.3614
12427SOL    HW238723   3.755   7.529   4.552 -0.6695  0.7119  0.8790
12428SOL     OW38724   6.081   6.840   5.175 -0.2507  0.3490 -0.1613
12428SOL    HW138725   5.998   6.831   5.221 -0.6834  0.0810 -0.9853
12428SOL    HW238726   6.132   6.902   5.229 -1.5008  1.6261 -0.3982
12429SOL     OW38727   4.969   6.017   4.444  0.2641  0.4285  0.1151
12429SOL    HW138728   4.911   5.984   4.513  1.8266 -1.1903  0.7444
12429SOL    HW238729   4.947   5.964   4.367  2.1924 -1.6763  0.8999
12430SOL     OW38730   5.322   1.871   7.061  0.3993 -0.1711  0.6071
12430SOL    HW138731   5.300   1.907   6.975  0.6206 -0.9293  0.2218
12430SOL    HW238732   5.343   1.779   7.043 -1.4016 -0.8522  1.7199
12431SOL     OW38733   3.929   1.050   3.710  0.9026  0.4683 -0.2984
12431SOL    HW138734   3.914   1.098   3.629  2.1082  0.9158 -0.2836
12431SOL    HW238735   3.880   0.969   3.700  0.4037  0.8628 -1.1395
12432SOL     OW38736   7.101   0.169   5.787 -0.1377 -0.3120 -0.0228
12432SOL    HW138737   7.111   0.185   5.694 -2.6727  0.4053 -0.2471
12432SOL    HW238738   7.077   0.076   5.794  0.0122 -0.3550 -0.0842
12433SOL     OW38739   4.248   1.365   4.725 -0.4448  0.0938 -0.0333
12433SOL    HW138740   4.234   1.373   4.819 -0.7621 -0.0665 -0.0632
12433SOL    HW238741   4.321   1.424   4.706 -0.0078 -0.2967  0.3984
12434SOL     OW38742   5.216   7.309   6.496 -0.5154  0.0136  0.2505
12434SOL    HW138743   5.202   7.384   6.438  0.3977  0.4452  0.5702
12434SOL    HW238744   5.133   7.261   6.494 -1.3476  1.3866  0.5545
12435SOL     OW38745   4.525   6.369   4.009  0.4540 -0.3565  0.0835
12435SOL    HW138746   4.545   6.308   3.938  0.8634 -0.9928  0.7289
12435SOL    HW238747   4.433   6.352   4.030  0.3817 -0.2865 -0.1808
12436SOL     OW38748   4.905   0.552   4.094 -0.0148  0.2116  0.5673
12436SOL    HW138749   4.886   0.640   4.126 -0.5715  0.5848 -0.7517
12436SOL    HW238750   4.958   0.565   4.016  2.0375 -0.7114  1.7115
12437SOL     OW38751   4.100   0.887   6.235 -0.0471 -0.2064 -0.0529
12437SOL    HW138752   4.181   0.838   6.245  0.0142 -0.6528 -2.2871
12437SOL    HW238753   4.034   0.820   6.215 -0.3215  0.4261 -1.3425
12438SOL     OW38754   4.433   0.185   3.613  0.3681  0.3352  0.2432
12438SOL    HW138755   4.364   0.210   3.675  0.4891  2.7986 -0.5038
12438SOL    HW238756   4.387   0.164   3.532  0.4504  1.9420 -0.2440
12439SOL     OW38757   4.527   7.467   5.761 -0.2456 -0.8827 -0.0028
12439SOL    HW138758   4.442   7.471   5.718 -1.1077  0.0001  1.6951
12439SOL    HW238759   4.511   7.501   5.849  1.8062 -0.9878  0.4542
12440SOL     OW38760   5.071   1.926   4.063 -0.3752  0.5251  0.3258
12440SOL    HW138761   4.977   1.938   4.076 -0.8832 -1.4805 -1.0173
12440SOL    HW238762   5.108   1.931   4.151 -1.7907  0.9242  0.9404
12441SOL     OW38763   4.699   0.235   5.086  0.2178 -0.0663  0.1534
12441SOL    HW138764   4.714   0.145   5.115 -0.1795  0.2464  1.3930
12441SOL    HW238765   4.604   0.248   5.093  0.2768  0.4681  0.0623
12442SOL     OW38766   4.341   2.177   4.957  0.0590  0.1690  0.2864
12442SOL    HW138767   4.387   2.245   4.907  1.1190 -0.2370  0.6731
12442SOL    HW238768   4.407   2.109   4.970 -0.9197 -0.8341  0.1120
12443SOL     OW38769   3.753   0.322   5.855  0.3690 -0.1932 -0.3008
12443SOL    HW138770   3.716   0.261   5.919 -2.3052  1.4672 -0.1108
12443SOL    HW238771   3.691   0.321   5.782  1.2353  0.9208 -1.0876
12444SOL     OW38772   5.234   0.328   6.711  0.4022  0.1542 -0.3401
12444SOL    HW138773   5.240   0.375   6.628 -1.7822 -0.4536 -0.8923
12444SOL    HW238774   5.190   0.246   6.689  2.1654 -1.2420  0.9891
12445SOL     OW38775   4.928   7.497   5.422  0.3635  0.7230 -0.4484
12445SOL    HW138776   4.963   7.408   5.414  1.8610  1.0772  1.4732
12445SOL    HW238777   4.848   7.487   5.473  0.1687  0.4326 -0.8004
12446SOL     OW38778   6.175   1.518   6.749 -0.4384  0.4044  0.0599
12446SOL    HW138779   6.138   1.533   6.661 -1.3663  2.0809  0.6764
12446SOL    HW238780   6.262   1.481   6.732 -1.0056 -0.3189 -1.5290
12447SOL     OW38781   5.136   2.141   2.212 -0.2549 -0.6259 -0.2495
12447SOL    HW138782   5.117   2.087   2.136  2.4170 -1.8049 -0.2020
12447SOL    HW238783   5.125   2.082   2.287 -0.6330 -0.1227  0.0992
12448SOL     OW38784   5.166   0.802   5.753  0.0335  0.6301 -0.3855
12448SOL    HW138785   5.225   0.830   5.684  1.2680 -2.1699 -0.6216
12448SOL    HW238786   5.214   0.817   5.834  0.2873  0.1573 -0.4440
12449SOL     OW38787   5.741   1.711   5.566  0.4466 -0.2117  0.0081
12449SOL    HW138788   5.647   1.701   5.576  0.6163 -0.8164  1.1517
12449SOL    HW238789   5.777   1.689   5.652  1.5507  1.1429 -0.0785
12450SOL     OW38790   7.098   7.489   4.427  0.9114 -0.1464 -0.2922
12450SOL    HW138791   7.073   7.442   4.507  3.2377 -1.2350 -0.1227
12450SOL    HW238792   7.060   7.438   4.356 -0.8941  0.6436  0.0455
12451SOL     OW38793   4.532   2.079   4.434 -0.5408 -0.0056 -0.2352
12451SOL    HW138794   4.515   2.108   4.344  2.0337  3.4664  0.2068
12451SOL    HW238795   4.485   2.143   4.489 -1.1278 -1.3835  0.9218
12452SOL     OW38796   5.216   0.833   3.222 -0.2133  0.4679 -0.4333
12452SOL    HW138797   5.145   0.821   3.160 -1.7968 -0.6597  1.4640
12452SOL    HW238798   5.238   0.926   3.216 -0.8780  0.5514 -2.0555
12453SOL     OW38799   5.358   0.316   2.741  0.1843 -0.3790 -0.2375
12453SOL    HW138800   5.278   0.302   2.690 -0.0587 -1.1734  0.3403
12453SOL    HW238801   5.384   0.229   2.770 -0.4279  0.1313  2.1005
12454SOL     OW38802   4.428   0.061   4.366  0.1320 -0.1834  0.2008
12454SOL    HW138803   4.473   0.144   4.354  0.7786 -0.2064  2.2049
12454SOL    HW238804   4.435   0.042   4.459 -1.0438 -1.9089 -0.0037
12455SOL     OW38805   5.070   2.073   6.649  0.0192  1.1568 -0.0754
12455SOL    HW138806   4.977   2.086   6.665  0.2573  2.6923  0.2341
12455SOL    HW238807   5.077   2.066   6.553 -0.3229  1.8561 -0.1551
12456SOL     OW38808   5.687   2.168   5.631 -0.0102 -0.2054  0.2850
12456SOL    HW138809   5.773   2.126   5.628  0.1295  0.1458 -0.7290
12456SOL    HW238810   5.681   2.218   5.550 -0.6936  0.7332  0.8926
12457SOL     OW38811   6.447   0.301   6.862 -0.1261 -0.3870 -0.3175
12457SOL    HW138812   6.503   0.378   6.863 -0.2709 -0.2828 -0.0215
12457SOL    HW238813   6.358   0.336   6.854 -0.1234 -0.5687 -1.2171
12458SOL     OW38814   3.936   7.855   5.244 -0.3882  0.1049  0.6061
12458SOL    HW138815   3.871   7.925   5.253 -1.0303 -0.5779  1.4258
12458SOL    HW238816   3.945   7.842   5.149 -1.2922  0.3473  0.4849
12459SOL     OW38817   6.235   1.671   4.521 -0.0390 -0.2137 -0.1753
12459SOL    HW138818   6.326   1.665   4.492 -0.1134 -0.8049 -0.3097
12459SOL    HW238819   6.215   1.764   4.518  0.3956 -0.1284 -0.6788
12460SOL     OW38820   3.947   1.397   4.704 -0.0569  0.1337  0.3569
12460SOL    HW138821   3.967   1.480   4.747 -0.1416 -0.3868  1.4460
12460SOL    HW238822   3.877   1.358   4.756 -1.0864  0.0499 -1.0266
12461SOL     OW38823   4.635   7.684   5.044 -0.3929 -0.2335 -0.0086
12461SOL    HW138824   4.683   7.630   5.107  0.6207  1.6020  0.8686
12461SOL    HW238825   4.681   7.670   4.961  0.0133 -0.5037  0.2578
12462SOL     OW38826   3.843   1.240   3.951 -0.8135 -0.5455  0.0409
12462SOL    HW138827   3.861   1.335   3.951  1.5990 -0.8509  2.6425
12462SOL    HW238828   3.910   1.204   3.894  2.0374 -0.9804  3.3058
12463SOL     OW38829   4.135   0.631   5.435  0.7174  0.7003 -1.0014
12463SOL    HW138830   4.196   0.617   5.363 -0.3203 -0.8807 -1.6230
12463SOL    HW238831   4.151   0.559   5.495  0.9223  1.4821 -0.0963
12464SOL     OW38832   5.844   0.004   4.093 -0.4422  0.1111  0.6522
12464SOL    HW138833   5.842   0.013   4.188 -0.4320  0.3028  0.6351
12464SOL    HW238834   5.776   0.064   4.062  0.0735  0.6269  0.4976
12465SOL     OW38835   2.887   2.021   5.435 -0.0263  0.6109  0.1775
12465SOL    HW138836   2.934   1.940   5.452  0.1425  0.8150  0.7075
12465SOL    HW238837   2.861   2.015   5.343  0.0529 -0.0041  0.1904
12466SOL     OW38838   3.985   2.152   4.811  0.2584  0.2731 -0.3669
12466SOL    HW138839   3.975   2.129   4.903 -0.9265 -1.7559 -0.9528
12466SOL    HW238840   4.067   2.112   4.784  0.2298  0.2267 -0.3844
12467SOL     OW38841   3.185   0.561   4.892 -0.1534 -0.0006 -0.0279
12467SOL    HW138842   3.241   0.508   4.835  1.7377  1.7059  0.1330
12467SOL    HW238843   3.172   0.508   4.970 -0.9117 -1.4465 -1.0887
12468SOL     OW38844   5.384   2.991   4.805  0.4268  0.2076  0.2135
12468SOL    HW138845   5.333   2.929   4.857  1.1593  0.1253  0.8604
12468SOL    HW238846   5.325   3.019   4.735 -0.3978 -0.1009  0.7757
12469SOL     OW38847   5.909   2.173   5.076 -0.2296 -0.0849  0.0123
12469SOL    HW138848   5.994   2.192   5.115  1.0598  1.5096 -3.1727
12469SOL    HW238849   5.906   2.078   5.069  1.3704 -0.1711  0.0974
12470SOL     OW38850   7.373   7.489   4.565 -0.1441  0.0816 -0.3640
12470SOL    HW138851   7.362   7.417   4.627 -0.7035  0.1906 -0.3290
12470SOL    HW238852   7.292   7.490   4.514  0.1028  0.3117 -0.7608
12471SOL     OW38853   4.547   0.819   6.070 -0.5724  0.0712 -0.1520
12471SOL    HW138854   4.537   0.906   6.033  0.5781  0.3125  0.0513
12471SOL    HW238855   4.633   0.790   6.039 -1.0002 -1.0550 -0.3393
12472SOL     OW38856   3.180   7.612   4.502  0.2589  0.0399  1.0279
12472SOL    HW138857   3.270   7.627   4.475 -0.2812  1.1813 -0.2975
12472SOL    HW238858   3.132   7.598   4.420 -0.5044 -2.4028  1.8039
12473SOL     OW38859   5.717   7.268   5.630  1.2787  0.5146 -0.1684
12473SOL    HW138860   5.711   7.259   5.725  1.1558 -1.0690 -0.2926
12473SOL    HW238861   5.704   7.361   5.613  1.5639  0.8549  1.3788
12474SOL     OW38862   4.740   6.528   7.033 -0.3752 -0.0315 -0.0115
12474SOL    HW138863   4.765   6.497   7.120  0.3227  1.4079  0.3301
12474SOL    HW238864   4.797   6.479   6.973 -0.8945 -1.0695  0.3097
12475SOL     OW38865   3.007   0.699   7.567 -0.2800 -0.1503  0.3976
12475SOL    HW138866   2.987   0.792   7.579  0.6236  0.2315 -0.8848
12475SOL    HW238867   3.021   0.689   7.473 -1.2424 -1.7841  0.3980
12476SOL     OW38868   3.606   0.439   3.368 -0.1496 -0.7120 -0.3096
12476SOL    HW138869   3.630   0.508   3.305 -1.8611 -0.4348 -0.7026
12476SOL    HW238870   3.547   0.482   3.430 -0.0141 -1.4640  0.3630
12477SOL     OW38871   5.506   1.795   6.454 -0.3830 -0.0981 -0.5967
12477SOL    HW138872   5.492   1.712   6.499 -0.3681 -0.6126 -1.5347
12477SOL    HW238873   5.502   1.861   6.524 -1.6996 -0.7512 -0.0237
12478SOL     OW38874   4.173   0.374   5.634 -0.3042  0.0008 -0.1238
12478SOL    HW138875   4.150   0.320   5.709 -0.1067 -1.2885 -0.9543
12478SOL    HW238876   4.214   0.313   5.572  0.8179  1.2852 -0.7099
12479SOL     OW38877   4.201   0.606   6.668 -0.4639 -0.0014  0.4449
12479SOL    HW138878   4.166   0.689   6.701 -3.4383 -1.0243  0.2003
12479SOL    HW238879   4.253   0.571   6.740 -0.2191  1.4536  1.0073
12480SOL     OW38880   4.851   1.295   5.845 -0.2359  0.1155 -0.3480
12480SOL    HW138881   4.763   1.328   5.859 -0.6088 -0.0576 -2.0798
12480SOL    HW238882   4.894   1.361   5.790  0.5534 -0.0420  0.0581
12481SOL     OW38883   3.722   0.026   5.270  0.1679 -0.0456 -0.4217
12481SOL    HW138884   3.660   0.033   5.198 -1.0899 -0.0671  0.6212
12481SOL    HW238885   3.771   0.108   5.268 -1.1411  0.7633 -0.1705
12482SOL     OW38886   5.836   1.930   6.355  0.5058  0.2370 -0.2888
12482SOL    HW138887   5.893   1.926   6.278  0.0787 -0.9075 -0.5754
12482SOL    HW238888   5.810   2.022   6.362  1.1933  0.4956 -1.0307
12483SOL     OW38889   4.712   0.151   4.692  0.2500  0.4172 -0.0195
12483SOL    HW138890   4.674   0.086   4.632 -0.5149  0.9480 -0.1194
12483SOL    HW238891   4.649   0.223   4.692 -0.4669 -0.1041  2.4486
12484SOL     OW38892   3.942   1.258   4.439  0.2306 -0.2562 -0.1404
12484SOL    HW138893   3.968   1.227   4.352 -0.3795  1.2009 -0.8713
12484SOL    HW238894   3.865   1.312   4.424 -1.0617 -1.4974  1.5568
12485SOL     OW38895   4.428   0.124   4.042 -0.0827 -0.0607  0.4711
12485SOL    HW138896   4.437   0.032   4.066  1.3177 -0.4111 -1.2334
12485SOL    HW238897   4.517   0.155   4.026 -0.6596  0.9513 -1.1252
12486SOL     OW38898   4.799   2.199   5.255  0.2331  0.9131  0.1212
12486SOL    HW138899   4.849   2.119   5.242 -0.3554  0.5293  0.2170
12486SOL    HW238900   4.860   2.257   5.303 -0.0595 -0.2561  2.0123
12487SOL     OW38901   4.723   0.961   6.718 -0.0681  0.6765 -0.0630
12487SOL    HW138902   4.812   0.989   6.739  0.2891 -1.4011  1.5623
12487SOL    HW238903   4.668   1.006   6.782  0.5737 -2.3765  3.0081
12488SOL     OW38904   5.403   0.097   2.334 -0.4074  0.6981  0.0645
12488SOL    HW138905   5.434   0.035   2.267 -2.9936 -0.6150 -0.0419
12488SOL    HW238906   5.438   0.182   2.306  1.3436 -0.3428 -1.0748
12489SOL     OW38907   4.953   0.912   4.364 -0.1591  0.0874 -0.1289
12489SOL    HW138908   5.023   0.949   4.417  0.2398  1.4886 -1.5288
12489SOL    HW238909   4.912   0.846   4.419  1.6696 -0.1169  1.0605
12490SOL     OW38910   3.778   0.660   5.471  0.2074 -0.0541 -0.0052
12490SOL    HW138911   3.764   0.633   5.561  0.2523  0.0831  0.0442
12490SOL    HW238912   3.805   0.752   5.477  0.4770 -0.1217 -0.1404
12491SOL     OW38913   3.481   0.526   5.924  0.4171  0.2185  0.1438
12491SOL    HW138914   3.405   0.469   5.926  0.7801 -0.4038 -1.8655
12491SOL    HW238915   3.535   0.497   5.998 -0.0495 -1.1260 -0.0254
12492SOL     OW38916   5.075   7.536   4.601 -0.0993 -0.1030 -0.4763
12492SOL    HW138917   5.037   7.458   4.640  2.0271 -0.4533  1.1022
12492SOL    HW238918   5.045   7.608   4.656  2.9535 -0.6032  2.1644
12493SOL     OW38919   5.199   1.369   6.653 -0.4887 -0.3847 -0.5231
12493SOL    HW138920   5.262   1.405   6.590  1.3798 -3.1232 -0.4199
12493SOL    HW238921   5.234   1.394   6.738  0.0588 -1.2224 -0.4879
12494SOL     OW38922   6.125   0.710   6.775  0.6138 -0.2321  0.3234
12494SOL    HW138923   6.094   0.650   6.843  2.1264  0.0686  1.3228
12494SOL    HW238924   6.078   0.792   6.792 -0.7351 -0.8085 -0.4549
12495SOL     OW38925   6.178   2.138   4.373  0.2989 -0.0161  0.2393
12495SOL    HW138926   6.198   2.220   4.417  1.5823 -0.1741 -0.0231
12495SOL    HW238927   6.084   2.143   4.355 -0.1925  0.2565  2.5455
12496SOL     OW38928   4.202   2.004   4.763 -0.1875 -0.1309  0.0926
12496SOL    HW138929   4.257   2.073   4.800  1.0166 -1.0666  0.1032
12496SOL    HW238930   4.202   2.020   4.669 -1.6047  1.0626  0.2543
12497SOL     OW38931   3.915   0.582   6.234 -0.3703  0.3805 -0.3138
12497SOL    HW138932   3.989   0.525   6.254 -0.8089  0.3086  1.2791
12497SOL    HW238933   3.902   0.573   6.140  1.9076  0.7461 -0.7231
12498SOL     OW38934   6.145   1.728   5.192 -0.0091  0.4293 -0.3589
12498SOL    HW138935   6.125   1.651   5.139  1.1705  0.5930 -1.0801
12498SOL    HW238936   6.200   1.696   5.263 -2.0710  0.1094  1.1809
12499SOL     OW38937   4.210   1.213   5.661 -0.0063  0.0286  0.1330
12499SOL    HW138938   4.189   1.175   5.746 -1.5401  0.5311  0.0064
12499SOL    HW238939   4.239   1.302   5.680 -0.1244  0.0626  0.1571
12500SOL     OW38940   3.354   1.818   6.519 -0.2897 -0.5011  0.2015
12500SOL    HW138941   3.407   1.796   6.442 -0.4036 -0.9415  0.2432
12500SOL    HW238942   3.380   1.907   6.542  0.5971 -0.7927  0.3588
12501SOL     OW38943   5.840   1.752   5.135 -0.0904 -0.2736 -0.0008
12501SOL    HW138944   5.921   1.772   5.181  0.1186 -2.8167  0.8674
12501SOL    HW238945   5.863   1.756   5.042  0.6572  0.3961  0.2114
12502SOL     OW38946   3.831   0.218   3.819  0.4418  0.3546  0.0283
12502SOL    HW138947   3.788   0.137   3.848 -1.0858  0.8661 -0.7307
12502SOL    HW238948   3.903   0.231   3.882  0.5976 -1.4711  0.2788
12503SOL     OW38949   5.441   0.723   6.865  0.3300 -0.1796  0.4454
12503SOL    HW138950   5.355   0.686   6.881  0.9155 -1.5163  0.5909
12503SOL    HW238951   5.460   0.776   6.943 -0.7542  0.9543 -0.0249
12504SOL     OW38952   4.774   2.602   6.488 -0.0209 -0.3405 -0.1329
12504SOL    HW138953   4.681   2.598   6.507  0.4938 -1.0775  2.7677
12504SOL    HW238954   4.791   2.695   6.469 -1.3033 -0.1698 -0.4829
12505SOL     OW38955   5.488   1.557   6.596  0.1603 -0.4203  0.5582
12505SOL    HW138956   5.497   1.468   6.629 -1.6926 -0.8510  0.0487
12505SOL    HW238957   5.447   1.606   6.667  3.3619  0.7424  1.7791
12506SOL     OW38958   4.576   2.052   5.666 -0.2266  0.0178  0.2576
12506SOL    HW138959   4.576   2.120   5.734 -0.1060  0.1037  0.1730
12506SOL    HW238960   4.579   2.102   5.584 -0.3502 -0.0859  0.1910
12507SOL     OW38961   4.469   0.561   4.921  0.6979  0.5731 -0.0814
12507SOL    HW138962   4.408   0.632   4.901  1.1974  1.7246  2.1674
12507SOL    HW238963   4.534   0.566   4.851 -1.6735 -0.7248 -2.5678
12508SOL     OW38964   4.352   0.745   6.219  0.2675 -0.2332 -0.3119
12508SOL    HW138965   4.389   0.749   6.307  0.1393  0.2049 -0.2729
12508SOL    HW238966   4.412   0.798   6.166 -2.1693  3.7315  0.4529
12509SOL     OW38967   6.913   7.775   7.231 -0.6103  0.0088  0.5020
12509SOL    HW138968   6.916   7.682   7.252 -0.7145 -0.1458 -0.1537
12509SOL    HW238969   6.829   7.787   7.186  0.3566 -0.0196 -1.4270
12510SOL     OW38970   6.486   1.193   4.675  0.2016 -0.0789  0.1433
12510SOL    HW138971   6.515   1.111   4.714 -0.6365  0.0560  1.0898
12510SOL    HW238972   6.404   1.171   4.630 -0.4898  0.3821  1.1263
12511SOL     OW38973   6.581   2.386   5.864 -0.0721  0.6511  0.0474
12511SOL    HW138974   6.605   2.451   5.799  1.2529  1.3131  1.1569
12511SOL    HW238975   6.490   2.406   5.886 -0.4732  0.5510 -1.3906
12512SOL     OW38976   5.040   1.562   4.576  0.2641  0.2578  0.2447
12512SOL    HW138977   4.955   1.518   4.572  0.7020 -0.6937  1.1154
12512SOL    HW238978   5.024   1.648   4.535 -0.6180 -0.6549 -1.4569
12513SOL     OW38979   4.918   0.103   4.937 -0.5290  0.2328  0.0818
12513SOL    HW138980   4.829   0.079   4.912  0.0776 -0.2750 -1.7161
12513SOL    HW238981   4.957   0.140   4.858  0.6747  1.0211  1.0045
12514SOL     OW38982   3.682   2.835   5.402  0.4817  0.3651 -0.2134
12514SOL    HW138983   3.743   2.903   5.373  0.4868 -0.1294 -1.4540
12514SOL    HW238984   3.692   2.765   5.337 -0.6760 -0.1395  0.1218
12515SOL     OW38985   7.164   0.609   6.097 -0.4153  0.4502  0.3090
12515SOL    HW138986   7.200   0.571   6.177 -0.6502  0.1786  0.2879
12515SOL    HW238987   7.145   0.533   6.041  1.6799  0.7080 -0.8489
12516SOL     OW38988   5.150   2.373   6.620 -0.2831  0.1412  0.7775
12516SOL    HW138989   5.089   2.374   6.693 -1.8495 -1.5192 -0.4208
12516SOL    HW238990   5.211   2.303   6.641 -1.5240 -1.2404 -0.0446
12517SOL     OW38991   3.873   1.632   6.324  0.0488  0.2619  0.3953
12517SOL    HW138992   3.811   1.680   6.269 -0.7149  0.1388  1.1153
12517SOL    HW238993   3.892   1.692   6.396  0.3353  0.0888  0.4649
12518SOL     OW38994   5.970   0.938   6.774 -0.0731 -0.2551 -1.2066
12518SOL    HW138995   5.878   0.934   6.750  0.2865 -0.2180 -2.6619
12518SOL    HW238996   6.004   1.014   6.727  0.6213 -0.0190 -0.3638
12519SOL     OW38997   4.317   1.251   7.585 -0.7694  0.2591 -0.1861
12519SOL    HW138998   4.295   1.286   7.498 -0.3131  0.5582 -0.1870
12519SOL    HW238999   4.390   1.190   7.568  0.1930  1.2900  0.1390
12520SOL     OW39000   5.607   3.466   5.961  0.0063  0.5352 -0.4441
12520SOL    HW139001   5.586   3.542   5.906  0.5963  0.4562 -0.7896
12520SOL    HW239002   5.534   3.460   6.022 -1.0561  0.1826 -1.6938
12521SOL     OW39003   5.478   1.477   5.212  0.3368  0.2630 -0.0454
12521SOL    HW139004   5.509   1.445   5.127 -0.5073 -0.2015 -0.1858
12521SOL    HW239005   5.549   1.534   5.243  1.1986 -0.5415 -0.4861
12522SOL     OW39006   7.679   7.460   3.642  0.0313  0.3591 -0.5039
12522SOL    HW139007   7.739   7.412   3.699  0.1989 -0.3381 -1.2460
12522SOL    HW239008   7.643   7.529   3.698  0.2322 -0.2643  0.4244
12523SOL     OW39009   3.512   1.160   5.315  0.1771 -0.1959  0.4261
12523SOL    HW139010   3.578   1.105   5.272 -0.3659  0.3251 -1.1557
12523SOL    HW239011   3.495   1.230   5.252 -1.4594 -0.0088  1.0376
12524SOL     OW39012   5.697   3.511   3.854  0.1649  0.5623  0.2532
12524SOL    HW139013   5.631   3.453   3.891  0.5923  1.1986  2.1655
12524SOL    HW239014   5.743   3.458   3.789 -0.9497 -0.4780  0.2802
12525SOL     OW39015   5.580   1.977   5.946 -0.4979 -0.1898 -0.0960
12525SOL    HW139016   5.523   1.922   5.893  0.7690 -0.4919 -1.2079
12525SOL    HW239017   5.556   1.957   6.036 -0.3798 -2.2385 -0.4817
12526SOL     OW39018   4.066   0.789   2.561  0.5904  0.3242 -0.5010
12526SOL    HW139019   4.057   0.700   2.595  0.4669  0.5918  0.1828
12526SOL    HW239020   4.020   0.843   2.625  1.3136  0.9642 -0.5101
12527SOL     OW39021   6.775   3.384   3.311 -0.0765  0.0031 -0.6707
12527SOL    HW139022   6.681   3.364   3.308 -0.2804  0.9256 -0.5903
12527SOL    HW239023   6.798   3.371   3.403 -0.6675  2.1128 -0.1890
12528SOL     OW39024   6.284   1.385   6.051  0.2666 -0.3167 -0.4202
12528SOL    HW139025   6.321   1.413   5.967  0.2850 -0.6495 -0.5229
12528SOL    HW239026   6.356   1.340   6.095  0.1981 -0.3149 -0.3052
12529SOL     OW39027   4.869   0.298   6.310 -0.7312 -0.4947  0.3605
12529SOL    HW139028   4.837   0.263   6.393  0.4605  0.0095  1.0570
12529SOL    HW239029   4.908   0.382   6.333 -1.9752  0.4844 -1.0055
12530SOL     OW39030   3.811   0.481   6.828 -0.0687  0.3264 -0.1513
12530SOL    HW139031   3.868   0.458   6.902  1.1066  0.4524 -0.9910
12530SOL    HW239032   3.730   0.435   6.846  0.1635  0.4166  1.2625
12531SOL     OW39033   5.709   0.676   5.361 -0.3366  0.1512 -0.0136
12531SOL    HW139034   5.715   0.733   5.438 -1.4822  0.0315  0.1703
12531SOL    HW239035   5.650   0.722   5.302 -0.9034 -0.6313 -0.0588
12532SOL     OW39036   4.022   7.384   5.825  0.1344  0.1404  0.0855
12532SOL    HW139037   3.997   7.301   5.785  1.1989  0.2668 -0.8643
12532SOL    HW239038   4.104   7.408   5.783 -0.3016  1.8316  0.1168
12533SOL     OW39039   2.788   1.505   6.866  0.6759  0.1175 -0.1859
12533SOL    HW139040   2.876   1.533   6.842  0.6884 -0.1716 -0.4896
12533SOL    HW239041   2.738   1.586   6.875  0.2452  0.2332 -2.8033
12534SOL     OW39042   4.341   0.057   4.892  0.3151  0.1222 -0.5142
12534SOL    HW139043   4.354  -0.024   4.943 -1.3627 -0.7219 -1.3373
12534SOL    HW239044   4.373   0.127   4.949 -1.3603 -0.7898  1.6800
12535SOL     OW39045   5.257   7.299   5.410  0.1690  0.6569  0.3246
12535SOL    HW139046   5.277   7.224   5.353  1.5146  2.2225 -1.3901
12535SOL    HW239047   5.165   7.287   5.434  0.0215 -0.9348 -0.8403
12536SOL     OW39048   5.442   0.864   6.625 -0.4282  0.1509  0.2652
12536SOL    HW139049   5.444   0.808   6.702 -0.7359 -0.9559 -0.5004
12536SOL    HW239050   5.477   0.810   6.554 -0.9513  0.8349 -0.5495
12537SOL     OW39051   2.975   0.818   4.130  0.5446  0.1854  0.0958
12537SOL    HW139052   2.991   0.742   4.186 -0.4568 -0.5805 -0.6216
12537SOL    HW239053   2.968   0.782   4.042  0.5816  1.1792 -0.3293
12538SOL     OW39054   3.701   1.128   3.093 -0.3385 -0.5358  0.4728
12538SOL    HW139055   3.760   1.190   3.048 -0.2341 -1.0441 -0.1004
12538SOL    HW239056   3.760   1.070   3.140 -0.4427 -0.1177  1.1341
12539SOL     OW39057   3.127   2.045   5.860 -0.4176  0.0513 -0.2790
12539SOL    HW139058   3.130   1.959   5.819 -0.7682  0.3708 -0.9929
12539SOL    HW239059   3.102   2.104   5.790 -1.2793  0.5865  0.4519
12540SOL     OW39060   7.468   2.353   6.487 -0.3354 -0.3674  0.5850
12540SOL    HW139061   7.554   2.390   6.468 -1.2167  0.7241 -1.4876
12540SOL    HW239062   7.472   2.263   6.453 -0.4737  0.1735 -0.9226
12541SOL     OW39063   5.830   1.314   6.633 -0.5318 -0.2079 -0.1036
12541SOL    HW139064   5.742   1.277   6.621 -0.5780  0.2487 -1.3696
12541SOL    HW239065   5.819   1.384   6.697 -0.7709 -1.2077  0.9761
12542SOL     OW39066   6.070   1.960   5.333 -0.2921 -0.1065 -0.6356
12542SOL    HW139067   6.059   1.921   5.246 -0.5295 -0.1519 -0.5851
12542SOL    HW239068   6.100   1.888   5.388 -0.3447 -0.1260 -0.6325
12543SOL     OW39069   5.349   0.412   7.646  0.0030 -0.0739  0.0258
12543SOL    HW139070   5.417   0.353   7.679 -0.4270 -0.4927  0.1652
12543SOL    HW239071   5.394   0.464   7.578  0.9580  0.9563  1.3754
12544SOL     OW39072   7.141   1.413   4.940  0.0957 -0.1251  0.0740
12544SOL    HW139073   7.137   1.353   5.015 -2.1854 -0.0227  0.1262
12544SOL    HW239074   7.050   1.440   4.927  0.7160  1.3607 -1.5488
12545SOL     OW39075   4.631   1.281   4.979 -0.0472  0.2254 -0.0687
12545SOL    HW139076   4.693   1.291   4.906  2.1930 -2.5845  1.2267
12545SOL    HW239077   4.613   1.187   4.983 -1.5021  0.5102  1.9167
12546SOL     OW39078   5.017   0.557   7.242 -0.2778  0.3732 -0.4314
12546SOL    HW139079   5.106   0.529   7.263  0.0388  0.2148 -1.8960
12546SOL    HW239080   4.969   0.546   7.324  0.9331  0.0080  0.2561
12547SOL     OW39081   6.042   6.319   5.310  0.8382  0.6797 -0.0400
12547SOL    HW139082   6.119   6.307   5.365  1.9864  1.5257 -1.4172
12547SOL    HW239083   6.076   6.329   5.222 -0.9329 -0.0185 -0.8498
12548SOL     OW39084   3.931   0.873   4.616  0.1034  0.5630  0.1107
12548SOL    HW139085   3.936   0.788   4.662 -0.6862  0.1194 -0.6024
12548SOL    HW239086   3.870   0.858   4.544  1.1143  1.3288 -0.9368
12549SOL     OW39087   4.934   1.926   5.289  0.4952 -0.0849  0.3320
12549SOL    HW139088   4.930   1.895   5.380 -0.0829  0.9961  0.7035
12549SOL    HW239089   5.005   1.876   5.249 -0.0685 -1.4931  1.0197
12550SOL     OW39090   4.367   2.552   5.089  0.4259 -0.1393  0.4045
12550SOL    HW139091   4.448   2.574   5.133 -0.0326  0.5418  0.9326
12550SOL    HW239092   4.322   2.636   5.076  0.9210 -0.1710 -2.1640
12551SOL     OW39093   6.272   0.697   4.551 -0.2248 -0.0240  0.1532
12551SOL    HW139094   6.327   0.749   4.492  0.3192 -0.4073  0.3081
12551SOL    HW239095   6.261   0.613   4.505 -1.0332  0.1965 -0.0630
12552SOL     OW39096   4.366   2.583   4.142 -0.6032  0.4815 -0.8305
12552SOL    HW139097   4.324   2.566   4.227  0.9525 -0.0840 -0.1270
12552SOL    HW239098   4.349   2.676   4.126 -0.8130  0.6386  0.1818
12553SOL     OW39099   3.928   3.162   6.176  0.0666 -0.0225 -0.6657
12553SOL    HW139100   3.985   3.217   6.229 -0.0680 -0.7596  0.2611
12553SOL    HW239101   3.986   3.097   6.138 -0.3690 -2.2205  2.1175
12554SOL     OW39102   4.441   1.083   6.278  0.4456  0.4453 -0.1586
12554SOL    HW139103   4.492   1.020   6.329  0.3594 -0.6609 -1.3650
12554SOL    HW239104   4.361   1.095   6.328  0.4583 -0.4266  0.0890
12555SOL     OW39105   4.471   0.336   4.630 -0.0962  0.0618 -0.2484
12555SOL    HW139106   4.386   0.294   4.614 -0.3991  0.8363 -0.7183
12555SOL    HW239107   4.518   0.328   4.547  0.5708 -0.9603  0.2054
12556SOL     OW39108   3.902   1.027   6.060  0.1887  0.3366  0.0153
12556SOL    HW139109   3.971   0.986   6.112 -0.4161  0.6205  1.0848
12556SOL    HW239110   3.911   0.989   5.973  1.3464 -0.0272  0.2808
12557SOL     OW39111   6.068   7.732   4.634  0.0036  0.3339  0.3355
12557SOL    HW139112   6.162   7.715   4.640  0.2913  1.4973 -0.5584
12557SOL    HW239113   6.028   7.654   4.672  1.3205 -0.2964  0.5085
12558SOL     OW39114   5.499   1.480   4.790  0.2059  0.2779  0.0107
12558SOL    HW139115   5.522   1.476   4.883  0.8897  0.4615 -0.1464
12558SOL    HW239116   5.537   1.562   4.759 -0.8799  0.7091 -0.2117
12559SOL     OW39117   4.442   0.324   5.059  0.1337 -0.1158  0.5354
12559SOL    HW139118   4.385   0.377   5.115 -1.3865 -0.6923 -0.4035
12559SOL    HW239119   4.443   0.369   4.975 -1.2250 -1.5385 -0.2957
12560SOL     OW39120   3.210   7.769   5.680  0.1686 -0.1748 -0.0753
12560SOL    HW139121   3.217   7.681   5.716 -3.3132  0.1329  1.6806
12560SOL    HW239122   3.129   7.804   5.715  0.3125  3.0004 -2.4253
12561SOL     OW39123   5.948   0.036   3.361  0.0825  0.1504 -0.0462
12561SOL    HW139124   5.947  -0.024   3.435  3.9329 -0.4431 -0.2865
12561SOL    HW239125   5.901  -0.011   3.291 -0.6195 -0.7243  0.9894
12562SOL     OW39126   5.887   0.435   4.147  0.2392 -0.0548 -0.1442
12562SOL    HW139127   5.844   0.360   4.189 -0.5767  0.5223  0.0854
12562SOL    HW239128   5.833   0.510   4.172  0.8535  0.5663 -0.6451
12563SOL     OW39129   5.047   0.711   6.692 -0.4598  0.8166  0.1296
12563SOL    HW139130   4.991   0.643   6.728  0.6671 -0.5962 -0.6847
12563SOL    HW239131   5.118   0.721   6.756  0.1539  0.1479 -0.4223
12564SOL     OW39132   5.915   2.047   7.112  0.5581  0.3410  0.4059
12564SOL    HW139133   5.829   2.008   7.097 -0.0393  0.9086  2.1283
12564SOL    HW239134   5.946   2.006   7.193  0.3389  2.6294  1.7441
12565SOL     OW39135   4.452   7.989   5.896  0.8491 -0.4507  0.2106
12565SOL    HW139136   4.367   8.012   5.859  1.9239  3.1475 -0.4636
12565SOL    HW239137   4.431   7.942   5.977 -1.8231  0.5816  0.2353
12566SOL     OW39138   4.900   1.044   5.987  0.1005  0.1236  0.0675
12566SOL    HW139139   4.988   1.081   5.986  0.5105 -0.7625  0.9196
12566SOL    HW239140   4.849   1.103   6.043  0.6168 -0.2988  1.0063
12567SOL     OW39141   6.343   7.647   4.025  0.1898  0.3268  0.1897
12567SOL    HW139142   6.410   7.670   3.960  1.0943 -1.0296  0.5956
12567SOL    HW239143   6.373   7.689   4.106 -0.8363  1.8560 -0.1773
12568SOL     OW39144   4.004   0.568   3.980  0.5245  0.0372 -0.1452
12568SOL    HW139145   3.944   0.590   4.051  2.1518 -1.1892  1.7185
12568SOL    HW239146   3.961   0.601   3.901 -1.6978  0.8256  1.2985
12569SOL     OW39147   2.824   1.691   4.087 -0.8636  0.1823 -0.2638
12569SOL    HW139148   2.918   1.671   4.080 -0.7800  1.0144 -2.2937
12569SOL    HW239149   2.821   1.777   4.129 -0.6285  0.6143 -1.0990
12570SOL     OW39150   4.565   0.601   5.854 -0.3909  0.2475 -0.3193
12570SOL    HW139151   4.496   0.615   5.789  0.8269  2.3893 -1.2681
12570SOL    HW239152   4.576   0.687   5.896  0.8765 -0.3570  0.6534
12571SOL     OW39153   4.392   1.004   5.613 -0.7960  0.5349 -0.5263
12571SOL    HW139154   4.317   0.948   5.631 -0.3276  0.4686  1.3786
12571SOL    HW239155   4.357   1.093   5.617 -0.6958  0.5237  0.8415
12572SOL     OW39156   5.785   0.854   5.579  0.4002 -0.3912 -0.1682
12572SOL    HW139157   5.854   0.789   5.567 -0.3209 -1.3107  0.5425
12572SOL    HW239158   5.830   0.931   5.614  1.4002 -0.1553 -1.8765
12573SOL     OW39159   2.956   2.491   6.417  0.0909  0.6682  0.1196
12573SOL    HW139160   3.039   2.529   6.389  1.2759 -1.9511 -0.2201
12573SOL    HW239161   2.923   2.445   6.340 -0.1119 -0.8493  1.0759
12574SOL     OW39162   6.283   1.218   7.053 -0.5687  0.2167 -0.2140
12574SOL    HW139163   6.297   1.256   6.966 -1.4771 -1.1284 -0.9646
12574SOL    HW239164   6.245   1.290   7.104 -0.1959  0.9699 -0.9634
12575SOL     OW39165   3.786   7.882   7.213  0.0110 -0.2221 -0.1915
12575SOL    HW139166   3.818   7.867   7.123 -1.6067 -1.7622 -0.5543
12575SOL    HW239167   3.759   7.974   7.213  1.7572  0.3513 -0.6715
12576SOL     OW39168   5.957   4.753   6.899 -0.1079  0.3256 -0.4818
12576SOL    HW139169   6.037   4.805   6.887 -0.2641  0.5012 -0.7611
12576SOL    HW239170   5.903   4.807   6.957  0.4364 -0.2941  0.6494
12577SOL     OW39171   5.005   3.087   6.538 -0.0300  0.0684  0.2712
12577SOL    HW139172   5.044   3.039   6.611  1.9403  0.3681 -0.5152
12577SOL    HW239173   4.992   3.176   6.572 -1.6325 -0.4199  1.0401
12578SOL     OW39174   4.961   7.922   6.801 -0.1024 -0.2902  0.1554
12578SOL    HW139175   5.027   7.876   6.852  0.2527  1.2627  1.1665
12578SOL    HW239176   4.878   7.885   6.831  0.0786  0.6840  2.0811
12579SOL     OW39177   5.199   2.481   7.626 -0.5316  0.1560  0.2126
12579SOL    HW139178   5.242   2.563   7.601  0.8658 -0.2224  1.2357
12579SOL    HW239179   5.131   2.508   7.688 -0.9785  0.6620 -0.4942
12580SOL     OW39180   4.714   7.911   7.867  0.4331  0.0530  0.3005
12580SOL    HW139181   4.692   7.935   7.777  1.7281  0.6024  0.1019
12580SOL    HW239182   4.763   7.987   7.900  0.4048 -0.3534  1.3032
12581SOL     OW39183   6.563   3.015   6.580 -0.2751  0.2864  0.0800
12581SOL    HW139184   6.579   2.929   6.543 -0.0179  1.0447 -1.6529
12581SOL    HW239185   6.562   3.074   6.505 -0.6327  1.7742  1.2042
12582SOL     OW39186   4.395   0.700   7.451 -0.1789 -0.2738 -0.3083
12582SOL    HW139187   4.438   0.765   7.506  0.0276  0.2399 -1.0484
12582SOL    HW239188   4.464   0.669   7.392 -0.5266 -0.3436 -0.6867
12583SOL     OW39189   6.638   5.417   5.252  0.0791 -0.1070  0.3599
12583SOL    HW139190   6.677   5.439   5.167 -0.3907  2.2318  0.6910
12583SOL    HW239191   6.707   5.371   5.299  1.2461  0.8286 -0.3713
12584SOL     OW39192   4.845   2.135   6.277  0.2187  0.3282  0.3748
12584SOL    HW139193   4.776   2.129   6.344 -1.3286 -1.7684 -1.2942
12584SOL    HW239194   4.837   2.225   6.244  0.2982  1.0554  2.2098
12585SOL     OW39195   2.257   2.497   6.408 -0.0569  0.4262  0.0460
12585SOL    HW139196   2.182   2.473   6.353  0.2036  0.8106 -0.4975
12585SOL    HW239197   2.290   2.578   6.368  1.1773 -0.2035 -0.2606
12586SOL     OW39198   5.583   0.442   6.300 -0.3672  0.0099 -0.0247
12586SOL    HW139199   5.499   0.418   6.339 -0.9312  2.4862  0.4574
12586SOL    HW239200   5.648   0.418   6.365 -1.1194  1.9635  1.5520
12587SOL     OW39201   3.987   2.896   6.114  0.0126  0.1892  0.2531
12587SOL    HW139202   4.076   2.875   6.085  0.4319 -0.1481  1.7161
12587SOL    HW239203   3.931   2.859   6.046  0.9747  0.5507 -0.7774
12588SOL     OW39204   5.035   2.601   7.815 -0.1821 -0.2960  1.0595
12588SOL    HW139205   5.085   2.636   7.889  0.7862  0.5889  0.0163
12588SOL    HW239206   4.973   2.670   7.794  1.1496  0.5003 -0.4473
12589SOL     OW39207   5.244   2.678   6.734  0.1340 -0.1170 -0.3445
12589SOL    HW139208   5.292   2.734   6.673 -1.5268 -0.1094 -1.7405
12589SOL    HW239209   5.187   2.625   6.678 -0.4177 -1.1595  1.1332
12590SOL     OW39210   6.165   7.100   6.298  0.1284  0.0762 -0.3303
12590SOL    HW139211   6.240   7.061   6.342 -0.3690 -0.6871 -0.1441
12590SOL    HW239212   6.094   7.093   6.361 -0.2220  0.3650 -0.6854
12591SOL     OW39213   3.657   7.531   6.666  0.1718  0.2671  0.1742
12591SOL    HW139214   3.633   7.621   6.645 -0.1996 -0.2828 -1.9267
12591SOL    HW239215   3.715   7.539   6.742 -0.3313  2.2148  0.4011
12592SOL     OW39216   6.302   2.332   6.271 -0.1226 -0.2154 -0.4542
12592SOL    HW139217   6.281   2.418   6.235  0.3283 -0.4143 -1.2263
12592SOL    HW239218   6.231   2.275   6.239 -0.7041 -0.0367  0.4863
12593SOL     OW39219   4.785   2.710   7.856 -0.5767 -0.4375  0.6246
12593SOL    HW139220   4.787   2.700   7.951 -0.0695 -1.9218  0.4832
12593SOL    HW239221   4.737   2.791   7.841 -2.4455 -1.1963  2.0807
12594SOL     OW39222   5.895   0.721   7.848 -0.4533  0.5883 -0.1652
12594SOL    HW139223   5.930   0.652   7.791 -1.4615  0.0842 -0.2098
12594SOL    HW239224   5.969   0.779   7.864  0.6326 -0.8892  0.4562
12595SOL     OW39225   6.069   0.013   4.615 -0.1079  0.3113  0.1105
12595SOL    HW139226   6.090  -0.075   4.646 -0.5111  0.6295  1.3400
12595SOL    HW239227   6.155   0.053   4.598  0.1242  0.0534  0.6405
12596SOL     OW39228   6.796   2.913   7.873  0.6906  0.0855  0.2652
12596SOL    HW139229   6.842   2.945   7.950  1.1567 -0.6336  0.3044
12596SOL    HW239230   6.739   2.844   7.906 -1.1752  1.6001  0.3634
12597SOL     OW39231   4.048   1.302   6.764  0.0114  0.3222 -0.0115
12597SOL    HW139232   3.980   1.365   6.788  0.8358  0.9083  0.8787
12597SOL    HW239233   4.110   1.354   6.713 -0.4050 -0.3087 -1.1924
12598SOL     OW39234   4.519   1.109   7.454 -0.3572 -0.8623 -0.1579
12598SOL    HW139235   4.579   1.036   7.468 -0.8998 -1.3461 -0.3107
12598SOL    HW239236   4.530   1.131   7.361 -0.6168 -1.1393 -0.2575
12599SOL     OW39237   4.043   0.616   8.144 -0.0070  0.0588 -0.2641
12599SOL    HW139238   3.949   0.604   8.157  0.2539 -0.1502  1.7361
12599SOL    HW239239   4.082   0.535   8.178  0.9163  0.2837 -0.7542
12600SOL     OW39240   3.933   2.026   6.099 -0.3042  0.2759  0.4201
12600SOL    HW139241   3.862   2.067   6.050 -0.0945  0.6851  0.4539
12600SOL    HW239242   3.990   1.988   6.032 -0.8580 -0.5746  0.4140
12601SOL     OW39243   5.544   1.921   6.207  0.2288 -0.1624 -0.7007
12601SOL    HW139244   5.572   1.878   6.288  0.6716  0.0668 -0.7270
12601SOL    HW239245   5.465   1.969   6.231 -0.3342 -1.0771 -0.6981
12602SOL     OW39246   5.715   0.423   6.064  0.1819 -0.7063 -0.1362
12602SOL    HW139247   5.709   0.327   6.055  0.1592 -0.5958 -1.6227
12602SOL    HW239248   5.661   0.443   6.140 -2.1844 -1.6331 -1.4721
12603SOL     OW39249   5.486   0.977   7.021 -0.0121 -0.1185 -0.2954
12603SOL    HW139250   5.433   1.021   7.088 -0.4552 -2.0859  0.7404
12603SOL    HW239251   5.528   1.048   6.973 -1.7326  1.4536  0.3836
12604SOL     OW39252   5.534   4.660   6.040  0.4240  0.2034 -0.0000
12604SOL    HW139253   5.590   4.661   5.962 -0.9518 -0.9860 -1.0706
12604SOL    HW239254   5.446   4.648   6.005 -0.4074  1.0592  1.6876
12605SOL     OW39255   6.018   1.507   4.801  0.0750 -0.3655  0.3839
12605SOL    HW139256   5.943   1.449   4.790  0.5477 -0.8680 -0.2793
12605SOL    HW239257   5.985   1.593   4.774 -0.7109 -0.2378  1.6595
12606SOL     OW39258   6.146   0.917   7.546  0.2923  0.0033  0.1930
12606SOL    HW139259   6.055   0.948   7.543 -0.0161 -0.8878  0.1664
12606SOL    HW239260   6.194   0.981   7.494 -0.3484  0.3978  0.0708
12607SOL     OW39261   6.538   1.925   6.911  0.6537 -0.0559 -0.1769
12607SOL    HW139262   6.479   1.850   6.921 -0.4919  0.8733  0.1886
12607SOL    HW239263   6.578   1.913   6.825  1.7621 -1.9541  0.5193
12608SOL     OW39264   4.668   1.430   7.158  0.2630 -0.0856 -0.7123
12608SOL    HW139265   4.692   1.338   7.146  0.1641 -0.3655  0.9157
12608SOL    HW239266   4.586   1.440   7.110  1.0788 -0.4134 -2.2191
12609SOL     OW39267   6.639   0.353   6.588 -0.4286 -0.3991  0.5474
12609SOL    HW139268   6.633   0.447   6.604 -0.0923 -0.2185 -0.3775
12609SOL    HW239269   6.687   0.319   6.664 -0.6347  0.1492  0.9298
12610SOL     OW39270   5.263   1.208   7.391  0.1680 -0.1349 -0.3056
12610SOL    HW139271   5.280   1.167   7.307  0.3346  2.0115 -1.3765
12610SOL    HW239272   5.272   1.302   7.375  0.0054  0.3564  2.0624
12611SOL     OW39273   4.750   0.780   5.462 -0.1825 -0.0655 -0.3534
12611SOL    HW139274   4.740   0.779   5.557 -0.0915  0.7084 -0.3342
12611SOL    HW239275   4.696   0.853   5.432  0.4763  0.2483 -0.8087
12612SOL     OW39276   4.668   0.318   6.937  0.2821  0.1533  0.4656
12612SOL    HW139277   4.609   0.246   6.959  1.0592 -0.4698  0.5899
12612SOL    HW239278   4.742   0.275   6.894  0.6888  0.9015  0.4013
12613SOL     OW39279   3.966   1.411   7.377  0.6297  0.3957  0.1975
12613SOL    HW139280   3.953   1.368   7.461  0.4598 -0.3920 -0.2244
12613SOL    HW239281   3.917   1.493   7.384 -0.4103 -0.2383  0.4111
12614SOL     OW39282   4.329   2.416   6.428  0.0271 -0.6606  0.5025
12614SOL    HW139283   4.334   2.325   6.456  0.5590  0.1656  3.4039
12614SOL    HW239284   4.236   2.438   6.435  0.0478 -0.6835  0.8534
12615SOL     OW39285   2.943   1.574   5.799 -0.4171 -0.3386  0.1398
12615SOL    HW139286   2.918   1.661   5.767  1.7825 -0.0452 -0.9797
12615SOL    HW239287   2.967   1.590   5.891 -0.8830  0.0396  0.2054
12616SOL     OW39288   4.488   7.595   7.108 -0.8238  0.6619  0.2031
12616SOL    HW139289   4.551   7.649   7.156 -0.3785  1.0683 -0.8202
12616SOL    HW239290   4.493   7.626   7.018 -0.2298 -1.3871 -0.5307
12617SOL     OW39291   5.660   7.618   5.807 -0.6077  0.9336 -0.6884
12617SOL    HW139292   5.619   7.569   5.736 -0.8164 -0.3105  0.2584
12617SOL    HW239293   5.752   7.625   5.781  0.0215 -2.2340  0.2587
12618SOL     OW39294   4.621   1.526   6.305 -0.1844 -0.2416 -0.3031
12618SOL    HW139295   4.690   1.592   6.319 -1.2114  0.6104  0.9798
12618SOL    HW239296   4.560   1.540   6.378 -2.7692  0.3353 -2.4474
12619SOL     OW39297   2.666   0.152   8.241  0.0696  0.1378 -0.1869
12619SOL    HW139298   2.572   0.162   8.228 -0.0803 -1.1820 -0.1887
12619SOL    HW239299   2.700   0.242   8.237 -1.1805  0.6329 -0.1464
12620SOL     OW39300   6.151   1.438   7.153 -0.7768  0.1799  0.7575
12620SOL    HW139301   6.124   1.389   7.231 -0.5955  0.6218  1.0986
12620SOL    HW239302   6.111   1.524   7.163 -0.9813  0.1473  0.2241
12621SOL     OW39303   5.937   0.194   5.739 -0.0798  0.0679 -0.1987
12621SOL    HW139304   6.028   0.177   5.714 -0.4887 -0.6241 -1.2701
12621SOL    HW239305   5.919   0.131   5.809 -0.4906 -1.5806 -1.7191
12622SOL     OW39306   6.986   1.605   6.847  0.4692 -0.3302  0.0465
12622SOL    HW139307   7.047   1.630   6.917 -0.4643  0.2369  0.6779
12622SOL    HW239308   6.910   1.569   6.893  0.4049 -1.2375 -0.7416
12623SOL     OW39309   6.486   1.549   6.477 -0.1793  0.6124  0.3067
12623SOL    HW139310   6.403   1.527   6.435 -0.7185  2.0706  0.5539
12623SOL    HW239311   6.473   1.637   6.511  1.1486  0.4835  1.2170
12624SOL     OW39312   3.615   2.006   7.416  0.7246  0.1507 -0.1588
12624SOL    HW139313   3.699   2.028   7.375 -0.0984  1.4792 -1.1897
12624SOL    HW239314   3.599   2.079   7.477  0.1836  0.0372 -0.1658
12625SOL     OW39315   3.904   0.150   7.005  0.5317  0.0529 -0.2938
12625SOL    HW139316   3.924   0.237   7.040 -0.5738  0.1019  0.2400
12625SOL    HW239317   3.824   0.123   7.050  0.6745 -1.1058 -0.7007
12626SOL     OW39318   4.823   2.408   6.690 -0.4413  0.5058  0.5562
12626SOL    HW139319   4.818   2.496   6.651  1.0123  0.7860  0.9681
12626SOL    HW239320   4.778   2.417   6.774 -0.1884  0.8923  0.6550
12627SOL     OW39321   5.445   1.573   5.626 -0.3794 -0.3903  0.1547
12627SOL    HW139322   5.480   1.504   5.570 -0.6809 -1.2444  1.0015
12627SOL    HW239323   5.403   1.527   5.699 -0.4332  0.6875  0.8329
12628SOL     OW39324   4.588   7.824   5.462  0.0435 -0.0997  0.0279
12628SOL    HW139325   4.580   7.860   5.373  2.1696 -1.9635 -1.0172
12628SOL    HW239326   4.499   7.800   5.486 -0.4524 -0.5710 -2.0677
12629SOL     OW39327   4.097   1.541   8.105 -0.1458 -0.4762 -0.7065
12629SOL    HW139328   4.023   1.593   8.136 -0.0255  1.1832 -2.9170
12629SOL    HW239329   4.159   1.541   8.177 -0.2179  2.4388 -0.5132
12630SOL     OW39330   4.207   0.295   7.523 -0.1812  1.1633 -0.1803
12630SOL    HW139331   4.245   0.208   7.511 -0.1258  1.2229 -0.4309
12630SOL    HW239332   4.186   0.325   7.435 -0.6165  1.2194 -0.0625
12631SOL     OW39333   3.864   2.728   7.028  0.2052 -0.3332  0.1115
12631SOL    HW139334   3.830   2.808   7.067 -0.6746 -0.9179  0.5840
12631SOL    HW239335   3.877   2.750   6.936  0.2161  0.4252  0.2912
12632SOL     OW39336   5.514   0.682   6.450 -0.1890  0.2591 -0.3444
12632SOL    HW139337   5.550   0.714   6.368 -1.6285  2.0016 -0.3822
12632SOL    HW239338   5.490   0.591   6.433  0.6321  0.2384 -1.4634
12633SOL     OW39339   3.599   1.151   6.444 -0.6226  0.7779 -0.1828
12633SOL    HW139340   3.630   1.112   6.362  1.2094  0.9484  0.3731
12633SOL    HW239341   3.624   1.243   6.438 -0.5645  0.8133  0.5044
12634SOL     OW39342   5.718   7.345   8.582  0.0610 -0.0072 -0.3583
12634SOL    HW139343   5.689   7.423   8.629 -0.8056 -1.0271  0.8723
12634SOL    HW239344   5.808   7.364   8.556  0.6518  0.5402  1.8989
12635SOL     OW39345   4.804   1.722   7.097  0.1574  0.8611  0.0211
12635SOL    HW139346   4.892   1.685   7.094  0.3253  1.0217  1.6808
12635SOL    HW239347   4.817   1.814   7.117 -0.3503  0.3965  3.0662
12636SOL     OW39348   4.195   0.790   6.950  0.7092  0.0628 -0.3342
12636SOL    HW139349   4.235   0.703   6.958 -1.4966 -0.9110  0.8923
12636SOL    HW239350   4.123   0.778   6.889 -0.2463  0.7648  0.6133
12637SOL     OW39351   5.031   2.912   6.151 -0.5231  0.4281 -0.1136
12637SOL    HW139352   4.965   2.952   6.094 -1.3636  1.4999  1.5198
12637SOL    HW239353   5.004   2.938   6.239  0.2482 -1.8739  0.8554
12638SOL     OW39354   4.941   1.183   8.405  0.6035 -0.1102  0.1879
12638SOL    HW139355   5.032   1.157   8.390  1.0009  0.6564  1.1903
12638SOL    HW239356   4.929   1.262   8.353 -0.0369 -1.1577 -1.3344
12639SOL     OW39357   3.376   6.752   6.202 -0.1205 -0.5078 -0.0619
12639SOL    HW139358   3.331   6.802   6.270 -2.3065 -0.9534 -1.1035
12639SOL    HW239359   3.399   6.817   6.136  1.5845 -0.1496  0.8338
12640SOL     OW39360   5.436   2.044   5.301  0.1036  0.4474 -0.0264
12640SOL    HW139361   5.375   2.005   5.364  1.2128 -0.8161  0.3135
12640SOL    HW239362   5.505   1.978   5.290 -0.1977  0.4862 -2.8189
12641SOL     OW39363   3.424   7.045   7.039  0.0373 -0.1451  0.2822
12641SOL    HW139364   3.430   7.123   6.984  2.8066 -1.4684 -1.5261
12641SOL    HW239365   3.390   7.078   7.123  0.5719  2.8891 -0.5565
12642SOL     OW39366   5.829   0.608   5.866 -0.1735 -0.3902  0.3069
12642SOL    HW139367   5.803   0.547   5.935 -1.4533  0.5295  0.6671
12642SOL    HW239368   5.767   0.681   5.873  1.6235  1.2392  0.2550
12643SOL     OW39369   5.567   1.174   6.826 -0.1142  0.7121  0.1633
12643SOL    HW139370   5.539   1.182   6.734 -3.1132 -0.4024  0.8583
12643SOL    HW239371   5.620   1.252   6.841 -0.5775  1.5816 -2.1741
12644SOL     OW39372   7.001   3.754   4.479  0.6084  0.3698 -0.1251
12644SOL    HW139373   6.908   3.735   4.494  0.6527  0.2667  0.0171
12644SOL    HW239374   7.002   3.799   4.394  0.3918  0.7090  0.0506
12645SOL     OW39375   4.654   1.696   6.713 -0.2251  0.8476  0.0691
12645SOL    HW139376   4.606   1.766   6.668 -0.1506  1.1809  0.4966
12645SOL    HW239377   4.741   1.697   6.673 -0.8015 -0.3279 -1.3130
12646SOL     OW39378   6.236   1.676   5.675 -0.0523 -0.6038 -0.4760
12646SOL    HW139379   6.281   1.612   5.732 -0.4475 -1.1977 -0.8170
12646SOL    HW239380   6.206   1.744   5.735  1.8391  0.1503 -0.3037
12647SOL     OW39381   6.331   1.272   6.555  0.1004 -0.3147  0.2364
12647SOL    HW139382   6.344   1.184   6.519 -2.1901 -1.5294  2.1064
12647SOL    HW239383   6.316   1.328   6.479 -0.3368 -1.9347 -0.9101
12648SOL     OW39384   2.710   0.285   6.626 -0.7046  0.1196 -0.4088
12648SOL    HW139385   2.690   0.350   6.695  1.0351  0.1601  0.0898
12648SOL    HW239386   2.734   0.206   6.674  0.0146 -0.0103 -0.9683
12649SOL     OW39387   4.583   7.861   7.611  0.9008  0.0854  0.6149
12649SOL    HW139388   4.564   7.898   7.525  1.2615  1.8057  1.2537
12649SOL    HW239389   4.497   7.845   7.650  0.7397 -0.5401  0.0283
12650SOL     OW39390   6.660   7.285   5.900 -0.0833  0.1025 -1.0527
12650SOL    HW139391   6.661   7.366   5.952  1.3061 -0.3705 -0.3044
12650SOL    HW239392   6.696   7.219   5.959  0.3029 -0.7231 -2.1940
12651SOL     OW39393   4.696   7.320   6.608 -0.5368 -0.0795  0.1313
12651SOL    HW139394   4.727   7.363   6.688  0.0795 -0.1623 -0.0561
12651SOL    HW239395   4.674   7.232   6.636 -2.1646  0.4445  0.5962
12652SOL     OW39396   3.652   1.512   5.940 -0.1915 -0.0255 -0.0811
12652SOL    HW139397   3.668   1.421   5.964  2.1637  0.6203  1.0722
12652SOL    HW239398   3.592   1.544   6.008 -2.9277 -1.1946 -1.7436
12653SOL     OW39399   7.049   1.841   6.141  0.2220 -0.1682 -0.4882
12653SOL    HW139400   7.122   1.895   6.112 -0.2562 -0.8390 -3.2409
12653SOL    HW239401   7.090   1.767   6.185  1.2345 -0.5007 -1.9279
12654SOL     OW39402   6.399   0.225   4.816 -0.3904 -0.2380 -0.4234
12654SOL    HW139403   6.304   0.237   4.820 -0.4362 -0.6812 -0.1918
12654SOL    HW239404   6.425   0.215   4.907 -0.2235 -0.9192 -0.5474
12655SOL     OW39405   4.356   1.086   4.891  0.1329 -0.0606  0.2976
12655SOL    HW139406   4.299   1.017   4.858  1.0761 -1.5010  1.5526
12655SOL    HW239407   4.399   1.120   4.813  0.0137 -1.2333 -0.3014
12656SOL     OW39408   4.523   2.839   5.757 -0.3369  0.2581  0.1556
12656SOL    HW139409   4.559   2.869   5.841  2.0433 -0.7741 -0.4142
12656SOL    HW239410   4.526   2.917   5.701 -0.0791  0.4759  0.4623
12657SOL     OW39411   6.489   0.903   5.909 -0.6183 -0.0070  0.4596
12657SOL    HW139412   6.537   0.840   5.962  1.3402  1.8524  1.0057
12657SOL    HW239413   6.555   0.944   5.854 -2.1385  0.3161 -1.2272
12658SOL     OW39414   5.928   7.717   4.029 -0.2531  0.1159  0.1954
12658SOL    HW139415   5.921   7.813   4.027 -1.1084  0.0590 -0.6162
12658SOL    HW239416   6.020   7.700   4.009 -0.5502  0.7578 -2.0503
12659SOL     OW39417   3.760   0.395   7.772 -0.0692  0.0133  0.2315
12659SOL    HW139418   3.850   0.368   7.787  0.0064  0.1054 -0.0564
12659SOL    HW239419   3.744   0.375   7.680 -0.4476 -0.3060  0.3636
12660SOL     OW39420   4.266   2.540   6.814 -0.6727  0.3022 -0.1587
12660SOL    HW139421   4.294   2.632   6.816 -1.9842  0.7050  0.8048
12660SOL    HW239422   4.180   2.542   6.772  0.0197 -0.7408 -1.7774
12661SOL     OW39423   4.297   2.817   5.094 -0.7208  0.2200 -0.1686
12661SOL    HW139424   4.226   2.870   5.130 -1.2047  0.9652 -2.0553
12661SOL    HW239425   4.301   2.843   5.001 -0.0829 -2.0799 -0.8563
12662SOL     OW39426   6.499   2.886   6.100 -0.1472 -0.6841  0.0633
12662SOL    HW139427   6.469   2.796   6.088  0.2281 -0.8208  0.1230
12662SOL    HW239428   6.504   2.897   6.195 -1.7388 -0.0713  0.1093
12663SOL     OW39429   4.267   7.734   6.490 -0.3204 -0.0436 -0.0803
12663SOL    HW139430   4.255   7.639   6.494 -0.2089 -0.0760 -0.5067
12663SOL    HW239431   4.236   7.759   6.403  1.3372  0.0601 -0.6764
12664SOL     OW39432   4.766   2.723   8.133 -0.2410 -0.3109 -0.5914
12664SOL    HW139433   4.769   2.818   8.147 -0.3924 -0.1243 -1.7112
12664SOL    HW239434   4.711   2.690   8.204 -2.7792  0.8286 -1.8774
12665SOL     OW39435   7.665   7.505   6.145 -0.4301 -0.2204  0.5239
12665SOL    HW139436   7.573   7.487   6.124 -0.3907  0.3038 -0.1301
12665SOL    HW239437   7.701   7.542   6.065  0.5157 -0.9785  0.5874
12666SOL     OW39438   4.229   7.839   7.296  0.7956 -0.4019 -0.2472
12666SOL    HW139439   4.214   7.855   7.203 -0.0680 -1.7762 -0.3619
12666SOL    HW239440   4.210   7.746   7.308  1.2496 -0.3276  1.2405
12667SOL     OW39441   6.120   7.768   6.434 -0.2185  0.7234 -0.0573
12667SOL    HW139442   6.154   7.706   6.368 -2.4907  0.8794 -1.4796
12667SOL    HW239443   6.199   7.804   6.474  1.3516 -3.8510  1.7060
12668SOL     OW39444   4.114   7.928   7.002 -0.2782 -0.2877 -0.3106
12668SOL    HW139445   4.030   7.973   7.004  0.8096  1.8512 -0.1820
12668SOL    HW239446   4.125   7.901   6.911 -1.5689 -1.5883 -0.1085
12669SOL     OW39447   6.215   3.068   5.960 -0.1867 -0.0982 -0.8534
12669SOL    HW139448   6.187   2.978   5.975  0.9038 -0.2222  0.7107
12669SOL    HW239449   6.295   3.060   5.909 -2.3520  0.2304 -4.6665
12670SOL     OW39450   4.861   0.132   6.012  0.5187 -0.1292 -0.5478
12670SOL    HW139451   4.940   0.085   6.042 -0.6986 -0.7653  1.8793
12670SOL    HW239452   4.855   0.109   5.919  2.2112 -1.5060 -0.3925
12671SOL     OW39453   4.858   1.415   6.497  0.0376 -0.3660  0.3062
12671SOL    HW139454   4.771   1.407   6.535 -0.9154 -0.5774 -1.7798
12671SOL    HW239455   4.843   1.432   6.404  2.2161 -1.0054 -0.2377
12672SOL     OW39456   5.451   3.102   6.469 -0.0014  0.2131 -0.7337
12672SOL    HW139457   5.403   3.154   6.533  0.4035 -0.9494  0.5776
12672SOL    HW239458   5.384   3.069   6.409 -0.5119  0.5612 -0.3598
12673SOL     OW39459   3.705   5.701   6.935  0.4914 -0.4071  0.1586
12673SOL    HW139460   3.786   5.678   6.980  0.3839  0.7154  0.9463
12673SOL    HW239461   3.719   5.789   6.902 -0.4020 -0.1974  0.3023
12674SOL     OW39462   3.463   1.355   6.796 -0.1675 -0.4136 -0.0233
12674SOL    HW139463   3.494   1.442   6.822  0.5047 -0.4284 -0.7191
12674SOL    HW239464   3.386   1.339   6.851  1.9840 -1.1014  3.0803
12675SOL     OW39465   3.336   1.646   7.474  0.4171 -0.8067  0.5314
12675SOL    HW139466   3.372   1.695   7.400  1.3735  0.5787  1.8507
12675SOL    HW239467   3.385   1.564   7.475  0.1197 -1.0240 -0.5631
12676SOL     OW39468   4.780   7.991   8.791 -0.3068 -0.2390 -0.9293
12676SOL    HW139469   4.778   8.062   8.855  0.4557 -0.5276 -0.5723
12676SOL    HW239470   4.688   7.968   8.777 -0.4457 -1.1396  1.1565
12677SOL     OW39471   2.730   0.057   6.746 -0.0237 -0.3498  0.0147
12677SOL    HW139472   2.714   0.067   6.840  0.8741 -0.5516  0.1989
12677SOL    HW239473   2.667  -0.008   6.717  0.5558 -1.2567  0.7423
12678SOL     OW39474   2.758   7.819   6.157  0.1984 -0.1137  0.3532
12678SOL    HW139475   2.822   7.826   6.086  0.9510  1.2900  1.1223
12678SOL    HW239476   2.804   7.773   6.227  0.3768  0.8692  0.8978
12679SOL     OW39477   4.532   0.683   6.671 -0.3781 -0.4819  0.1751
12679SOL    HW139478   4.500   0.629   6.743 -1.4270 -1.1416 -0.7524
12679SOL    HW239479   4.628   0.676   6.678 -0.4693 -2.1848  0.3137
12680SOL     OW39480   4.747   0.170   8.599  0.4723  0.0155 -0.1855
12680SOL    HW139481   4.804   0.133   8.530  0.7449 -0.9730  0.5487
12680SOL    HW239482   4.745   0.103   8.667 -2.7200 -0.6304 -0.7513
12681SOL     OW39483   6.883   0.432   6.225  0.6521 -0.0269  0.3932
12681SOL    HW139484   6.834   0.381   6.160  0.3538  0.3020  0.3554
12681SOL    HW239485   6.969   0.390   6.229  1.4466  1.2059 -1.7784
12682SOL     OW39486   1.870   7.479   7.744  0.2348  0.3935  0.5402
12682SOL    HW139487   1.932   7.510   7.810  0.2636  1.0382  0.2162
12682SOL    HW239488   1.881   7.539   7.670 -0.8168  0.5614  0.4987
12683SOL     OW39489   4.815   1.732   6.319 -0.6961 -0.0113  0.1050
12683SOL    HW139490   4.842   1.731   6.411  2.6359 -2.7925 -0.7161
12683SOL    HW239491   4.883   1.782   6.274 -1.4308 -0.0298 -1.0672
12684SOL     OW39492   4.506   2.496   7.052 -0.0445  0.0925  0.5495
12684SOL    HW139493   4.562   2.449   6.989  0.9906  0.7319  0.9697
12684SOL    HW239494   4.417   2.472   7.027  0.4166 -2.7968  1.2409
12685SOL     OW39495   6.708   0.017   8.546 -0.0801 -0.2141 -0.1080
12685SOL    HW139496   6.641  -0.051   8.542 -0.7946  0.4727 -0.1040
12685SOL    HW239497   6.789  -0.029   8.568 -0.6445 -0.9923  0.3549
12686SOL     OW39498   3.490   0.228   7.936  0.3267  0.8889  0.2227
12686SOL    HW139499   3.552   0.273   7.994 -0.3514  0.7142  1.1050
12686SOL    HW239500   3.429   0.184   7.996 -0.4190  0.7412 -0.6248
12687SOL     OW39501   6.886   7.742   5.842  0.1532  0.2210 -0.0806
12687SOL    HW139502   6.963   7.742   5.785  0.4787 -0.4578  0.3400
12687SOL    HW239503   6.893   7.660   5.891 -2.5354 -1.4697 -2.3000
12688SOL     OW39504   4.703   7.747   6.552 -0.5856  0.2668 -0.5290
12688SOL    HW139505   4.655   7.664   6.546  1.9061 -1.5921  2.1784
12688SOL    HW239506   4.680   7.781   6.638 -0.6739  1.8092 -1.1473
12689SOL     OW39507   2.335   0.442   5.508 -0.3824 -0.4429  0.2916
12689SOL    HW139508   2.361   0.506   5.443  0.3243 -0.9615  0.0475
12689SOL    HW239509   2.393   0.458   5.582 -0.9760 -0.0572  0.6861
12690SOL     OW39510   4.301   2.485   7.652  0.3935 -0.3159  0.6876
12690SOL    HW139511   4.294   2.560   7.711  1.8594 -0.4792  1.0843
12690SOL    HW239512   4.217   2.485   7.605 -0.6136  0.1057  2.3971
12691SOL     OW39513   2.581   1.943   6.418 -0.0174  0.4372  0.1675
12691SOL    HW139514   2.651   1.895   6.462 -0.8848  0.0756  1.1919
12691SOL    HW239515   2.596   1.927   6.325 -0.2228 -1.8021  0.4504
12692SOL     OW39516   6.592   7.618   4.959 -0.2736 -0.4487 -0.3648
12692SOL    HW139517   6.652   7.579   5.023 -0.3708  0.3470  0.2233
12692SOL    HW239518   6.630   7.596   4.874 -1.2993 -3.4571 -0.1746
12693SOL     OW39519   6.475   0.963   6.638  0.0247 -0.1568 -0.0597
12693SOL    HW139520   6.518   0.949   6.722 -1.5872 -2.8916  0.4388
12693SOL    HW239521   6.540   0.937   6.573  1.3070  2.0419  0.2582
12694SOL     OW39522   6.271   2.087   7.198 -0.2743  0.1879 -0.2136
12694SOL    HW139523   6.196   2.066   7.253  0.5515  1.2749  1.4363
12694SOL    HW239524   6.321   2.006   7.193 -0.2925  0.0930  0.8167
12695SOL     OW39525   4.337   1.536   6.819  0.0406  0.1535 -0.1893
12695SOL    HW139526   4.399   1.603   6.791 -0.4289  0.9633  0.6729
12695SOL    HW239527   4.261   1.547   6.762  0.5249 -0.6281 -1.0281
12696SOL     OW39528   5.493   1.703   7.316  0.0883 -0.7497  0.2010
12696SOL    HW139529   5.516   1.729   7.406 -1.5420 -1.2218  0.7791
12696SOL    HW239530   5.552   1.630   7.297  1.1409 -0.0092  0.4908
12697SOL     OW39531   6.018   7.426   5.806  0.2979 -0.7817  0.1636
12697SOL    HW139532   6.000   7.367   5.733 -0.0303  0.8039 -1.0816
12697SOL    HW239533   5.963   7.502   5.790  2.9950  1.2746 -0.0345
12698SOL     OW39534   5.455   0.597   6.036  0.1737  0.0219 -0.5483
12698SOL    HW139535   5.516   0.535   6.075 -0.4895 -0.0319  0.4667
12698SOL    HW239536   5.370   0.573   6.073 -0.4203  0.2575 -1.7232
12699SOL     OW39537   5.042   1.669   6.982 -0.2824  0.1388 -0.0659
12699SOL    HW139538   5.027   1.744   6.925  0.1265 -0.4727 -1.0135
12699SOL    HW239539   5.123   1.630   6.949 -0.7469 -0.9987  0.0947
12700SOL     OW39540   3.942   2.730   7.564  0.0977  0.1360  0.0005
12700SOL    HW139541   3.927   2.795   7.633 -0.6240 -0.3608  0.3254
12700SOL    HW239542   3.991   2.777   7.497  1.6565  0.3853  1.2535
12701SOL     OW39543   3.621   2.194   5.051 -0.2300 -0.0755  0.3171
12701SOL    HW139544   3.636   2.262   4.986 -0.9007  0.0077  0.2378
12701SOL    HW239545   3.704   2.185   5.097 -0.1832  0.9089  0.4365
12702SOL     OW39546   3.464   1.829   7.275  0.0887 -0.0942  0.0452
12702SOL    HW139547   3.515   1.758   7.237 -0.4929 -0.6455  0.2854
12702SOL    HW239548   3.530   1.890   7.309  0.5895 -0.4791 -0.2249
12703SOL     OW39549   4.940   1.352   7.010 -0.4328 -0.3137 -0.0022
12703SOL    HW139550   4.888   1.431   7.022 -0.3485 -0.4011  1.0963
12703SOL    HW239551   4.892   1.284   7.058 -0.3786 -0.8726 -0.7285
12704SOL     OW39552   3.000   0.214   7.849 -0.6831  0.7220 -0.6847
12704SOL    HW139553   2.933   0.250   7.908 -0.8026 -0.6484  0.0637
12704SOL    HW239554   3.078   0.266   7.868 -1.0845  1.1949 -0.2950
12705SOL     OW39555   7.601   1.053   6.702  0.2644 -0.1415 -0.9597
12705SOL    HW139556   7.525   1.061   6.645 -0.3705 -0.9801 -0.2746
12705SOL    HW239557   7.640   0.969   6.679  0.1120 -0.3997 -0.3155
12706SOL     OW39558   6.331   0.711   5.277  0.6313 -0.1150  0.1389
12706SOL    HW139559   6.292   0.700   5.191 -1.2918  0.3626  0.9111
12706SOL    HW239560   6.380   0.793   5.271  0.6265 -0.1547 -0.5254
12707SOL     OW39561   4.506   0.215   7.337 -0.6169  0.0796  0.3332
12707SOL    HW139562   4.445   0.203   7.409  0.4263  0.7669  1.3655
12707SOL    HW239563   4.510   0.129   7.294 -2.8610  0.2202 -0.2467
12708SOL     OW39564   4.446   1.348   7.015  0.0734 -0.1395 -0.0369
12708SOL    HW139565   4.383   1.408   6.977  0.5364 -0.5241 -1.4837
12708SOL    HW239566   4.483   1.301   6.940  1.4365 -0.5456  0.8451
12709SOL     OW39567   4.098   7.781   6.742  0.3449  0.5779  0.0950
12709SOL    HW139568   4.082   7.874   6.726  0.8233  0.6327 -0.0640
12709SOL    HW239569   4.112   7.743   6.655 -0.0359  0.3204  0.1431
12710SOL     OW39570   5.411   1.471   7.592 -0.4018 -0.6363  0.3417
12710SOL    HW139571   5.419   1.497   7.500  0.5347  0.1700  0.6261
12710SOL    HW239572   5.326   1.507   7.620 -0.2026  0.0616  0.0708
12711SOL     OW39573   4.348   0.292   6.739 -0.1299 -0.0213 -0.3421
12711SOL    HW139574   4.312   0.308   6.652 -0.3561 -2.2995 -0.7321
12711SOL    HW239575   4.434   0.253   6.722  0.7408  1.4434  0.5210
12712SOL     OW39576   2.990   0.418   7.660 -0.2709 -0.2205  0.3372
12712SOL    HW139577   2.995   0.414   7.756 -0.7470  1.5786  0.4644
12712SOL    HW239578   2.984   0.511   7.640 -2.0130 -0.6458 -1.3682
12713SOL     OW39579   7.188   2.435   7.625 -0.3113  0.1135  0.7513
12713SOL    HW139580   7.196   2.444   7.530  0.4455 -1.4674  0.6224
12713SOL    HW239581   7.095   2.449   7.643 -0.3170  1.3043 -0.0994
12714SOL     OW39582   5.949   1.734   6.516 -0.3231  0.0773  0.1231
12714SOL    HW139583   5.899   1.775   6.446  1.4959 -0.6731 -1.7126
12714SOL    HW239584   6.005   1.804   6.550 -0.1104  0.0884 -0.2439
12715SOL     OW39585   6.497   3.303   8.035  0.2452  0.0233 -0.2209
12715SOL    HW139586   6.578   3.257   8.051 -0.6260 -1.4134  0.2110
12715SOL    HW239587   6.428   3.239   8.053 -1.0163  1.4528  0.2865
12716SOL     OW39588   4.627   1.411   5.927 -0.4273  0.3700 -0.1613
12716SOL    HW139589   4.553   1.427   5.986 -1.1072  0.1654 -0.9401
12716SOL    HW239590   4.620   1.479   5.860 -1.1948 -0.9201 -1.4418
12717SOL     OW39591   4.554   2.078   6.436  0.0953  0.2842 -0.5591
12717SOL    HW139592   4.558   2.022   6.359  0.5473 -1.3361  0.5747
12717SOL    HW239593   4.461   2.103   6.443  0.0981  0.7029 -1.7512
12718SOL     OW39594   6.258   7.667   6.962  0.1175 -0.3375 -0.0188
12718SOL    HW139595   6.174   7.688   6.922  0.2506 -0.5789 -0.4352
12718SOL    HW239596   6.308   7.625   6.892  1.0314  0.9001 -0.1450
12719SOL     OW39597   4.672   0.398   7.239  0.3079 -0.0684 -0.3790
12719SOL    HW139598   4.619   0.328   7.277  1.3781 -0.8498 -0.2852
12719SOL    HW239599   4.704   0.361   7.157 -2.0691  1.6343 -2.2264
12720SOL     OW39600   4.609   3.202   6.700 -0.3507 -0.6803  0.1782
12720SOL    HW139601   4.653   3.273   6.748  1.4671 -1.9979  0.5615
12720SOL    HW239602   4.646   3.206   6.612 -1.3919 -0.2151 -0.2532
12721SOL     OW39603   6.278   1.927   5.848  0.1292  0.2969  0.5069
12721SOL    HW139604   6.294   1.887   5.934  1.7926  2.8588  1.5078
12721SOL    HW239605   6.365   1.941   5.812 -0.1395  4.2142  0.9243
12722SOL     OW39606   4.811   1.405   7.844  0.2170  0.1895 -0.2463
12722SOL    HW139607   4.857   1.369   7.920 -1.8080 -0.4835  0.7379
12722SOL    HW239608   4.725   1.429   7.878 -0.2640  1.1611 -2.0543
12723SOL     OW39609   4.010   2.587   5.572  0.0431  0.1994  0.0505
12723SOL    HW139610   4.042   2.646   5.504 -1.2432  0.8467 -0.0263
12723SOL    HW239611   4.037   2.500   5.544 -1.2565  0.3296 -1.8170
12724SOL     OW39612   4.370   2.432   7.337 -0.2727 -0.8783 -0.0183
12724SOL    HW139613   4.360   2.337   7.335  0.1714 -0.9556 -2.4995
12724SOL    HW239614   4.290   2.465   7.294 -0.1638 -0.1630  0.3194
12725SOL     OW39615   5.082   7.166   5.779 -0.1182  0.6986  0.1854
12725SOL    HW139616   5.022   7.151   5.852 -0.0683  2.1542  0.5611
12725SOL    HW239617   5.153   7.219   5.816  0.7075  0.1720 -0.5714
12726SOL     OW39618   5.387   0.142   6.080  0.4303 -0.0923 -0.1190
12726SOL    HW139619   5.315   0.129   6.142  0.1888 -2.3951 -0.8149
12726SOL    HW239620   5.344   0.147   5.995  1.0264 -0.5343 -0.4481
12727SOL     OW39621   7.182   2.063   4.532  0.1910  0.5323 -0.5098
12727SOL    HW139622   7.223   1.995   4.585  2.5922  1.7343 -0.7242
12727SOL    HW239623   7.144   2.123   4.596  0.4205  0.3990 -0.2450
12728SOL     OW39624   5.210   1.785   6.602 -0.4793 -0.6709  0.0730
12728SOL    HW139625   5.245   1.720   6.662 -0.5482 -0.6240  0.1639
12728SOL    HW239626   5.245   1.869   6.633  0.4800 -0.7800 -0.6802
12729SOL     OW39627   5.759   0.911   7.693  0.3626 -0.0493  0.7625
12729SOL    HW139628   5.665   0.910   7.709 -0.2471 -3.3480 -1.7961
12729SOL    HW239629   5.791   0.831   7.735  0.8514 -1.9984 -2.8273
12730SOL     OW39630   5.228   1.327   4.568  0.3347 -0.4200  0.4951
12730SOL    HW139631   5.162   1.397   4.573 -0.7372 -1.3637  0.0133
12730SOL    HW239632   5.293   1.359   4.507  0.3422  0.5386  0.9831
12731SOL     OW39633   3.525   1.310   8.757 -0.2843 -0.6352 -0.7041
12731SOL    HW139634   3.562   1.362   8.686  0.6603 -0.6402 -0.2263
12731SOL    HW239635   3.435   1.342   8.765  0.5377  1.6177  0.2098
12732SOL     OW39636   4.905   0.290   7.157 -0.1496  0.2332 -0.3211
12732SOL    HW139637   4.988   0.262   7.117 -0.6412 -0.0603 -1.1634
12732SOL    HW239638   4.918   0.383   7.177  1.5742 -0.5101  2.6933
12733SOL     OW39639   3.311   0.766   6.923 -0.1798 -0.2075  0.2460
12733SOL    HW139640   3.325   0.837   6.986  0.4193  1.7439 -1.9355
12733SOL    HW239641   3.221   0.778   6.893 -0.5214 -1.2345  0.8307
12734SOL     OW39642   4.732   7.653   4.765  0.1396 -0.6405  0.3798
12734SOL    HW139643   4.803   7.712   4.737 -0.6537  0.5131  0.6996
12734SOL    HW239644   4.656   7.684   4.717 -0.4578 -0.9281  1.1198
12735SOL     OW39645   4.035   1.493   6.152 -0.1380 -0.7902  0.1778
12735SOL    HW139646   4.019   1.399   6.161 -2.5029 -1.0286 -3.8924
12735SOL    HW239647   3.961   1.535   6.195 -0.0008 -0.8446  0.4709
12736SOL     OW39648   6.094   1.183   6.735  0.4079 -0.1586  0.4969
12736SOL    HW139649   6.124   1.237   6.662  0.8229 -2.0767 -0.8342
12736SOL    HW239650   6.106   1.237   6.812  2.8503  0.8592 -0.5163
12737SOL     OW39651   3.174   1.724   6.686 -0.0675 -0.1869  0.1828
12737SOL    HW139652   3.235   1.741   6.615  0.7955 -2.9787  0.1467
12737SOL    HW239653   3.143   1.811   6.712  2.8916  1.2627 -0.6703
12738SOL     OW39654   3.587   0.461   6.170  0.0330 -0.0900 -0.1869
12738SOL    HW139655   3.525   0.519   6.213 -0.3182 -0.6855  0.1282
12738SOL    HW239656   3.635   0.420   6.241  0.1649 -0.3028 -0.3963
12739SOL     OW39657   3.584   1.357   7.986 -0.6267 -0.4229 -0.0959
12739SOL    HW139658   3.628   1.442   7.976  1.4779 -1.6487 -2.1649
12739SOL    HW239659   3.494   1.374   7.958  0.0208  0.9134 -1.5338
12740SOL     OW39660   2.782   0.573   5.276  0.0581 -0.1962  0.3365
12740SOL    HW139661   2.779   0.602   5.367 -0.7446  2.2267 -0.3938
12740SOL    HW239662   2.825   0.644   5.229 -0.8835 -0.7079 -1.3929
12741SOL     OW39663   5.499   0.990   7.767  0.4845 -0.1487 -0.2668
12741SOL    HW139664   5.485   1.051   7.839 -0.4055 -0.4229 -0.1960
12741SOL    HW239665   5.500   1.045   7.689 -3.2405 -0.2258 -0.5413
12742SOL     OW39666   4.174   0.327   7.203  0.1812 -0.0484 -0.2282
12742SOL    HW139667   4.198   0.280   7.123 -0.2191  1.0771 -1.0207
12742SOL    HW239668   4.114   0.267   7.248 -0.2456 -0.3469 -1.1683
12743SOL     OW39669   5.476   2.287   7.347  0.2982  0.3567 -0.0133
12743SOL    HW139670   5.559   2.302   7.392 -0.9254  1.8114  1.9542
12743SOL    HW239671   5.416   2.350   7.387 -2.0969 -1.5488 -0.4095
12744SOL     OW39672   7.290   1.670   6.950 -0.2165  0.0221  0.0605
12744SOL    HW139673   7.279   1.666   7.045 -0.6021 -0.0644  0.0165
12744SOL    HW239674   7.259   1.758   6.927  2.5301  1.1710  0.3317
12745SOL     OW39675   5.700   1.305   7.388 -0.0212 -0.7211 -0.0783
12745SOL    HW139676   5.712   1.395   7.358 -0.8653 -0.7004 -0.4063
12745SOL    HW239677   5.718   1.252   7.311  0.6941 -0.8487  0.1749
12746SOL     OW39678   4.948   0.344   8.700  0.3087 -0.1747 -0.0846
12746SOL    HW139679   4.922   0.433   8.722 -0.6992 -0.4888  0.0497
12746SOL    HW239680   4.876   0.289   8.733  0.5819 -0.9761 -0.7846
12747SOL     OW39681   5.314   1.471   7.279  0.1962 -0.0549 -0.3801
12747SOL    HW139682   5.270   1.556   7.286  1.2707  0.6171 -1.4389
12747SOL    HW239683   5.280   1.433   7.199 -0.6243 -0.8489  0.3301
12748SOL     OW39684   3.505   2.719   7.831 -0.1193 -0.2879  0.0451
12748SOL    HW139685   3.440   2.665   7.875 -0.4365 -1.2371 -1.5215
12748SOL    HW239686   3.544   2.772   7.901 -0.5393 -1.7788  1.4643
12749SOL     OW39687   4.617   7.207   7.305 -0.1652  0.0773  0.4339
12749SOL    HW139688   4.624   7.122   7.349  1.3597  0.2176  0.5308
12749SOL    HW239689   4.572   7.188   7.223  0.6792 -0.9550  0.1826
12750SOL     OW39690   5.043   7.428   5.995  0.2191  0.4742 -0.1454
12750SOL    HW139691   5.053   7.336   6.021  1.1625  0.0342 -1.9089
12750SOL    HW239692   5.121   7.471   6.029  0.7309  0.2028 -0.9447
12751SOL     OW39693   4.383   0.167   6.346  0.5969 -0.6125 -0.5693
12751SOL    HW139694   4.421   0.085   6.377  1.9738  0.5867  1.1642
12751SOL    HW239695   4.412   0.232   6.411 -0.2810  1.2696 -1.9757
12752SOL     OW39696   4.209   1.122   7.022  0.1406 -0.4778  0.3945
12752SOL    HW139697   4.185   1.056   7.086  0.4345 -1.6127 -0.6351
12752SOL    HW239698   4.282   1.169   7.062 -1.6869  0.9835  2.2310
12753SOL     OW39699   3.541   6.573   9.533  0.2523 -0.1798 -0.0149
12753SOL    HW139700   3.465   6.516   9.540 -0.8582  1.0771 -1.1733
12753SOL    HW239701   3.551   6.612   9.620 -0.9727  0.2862 -0.0714
12754SOL     OW39702   4.976   2.424   6.398 -0.0762 -0.1979 -0.1714
12754SOL    HW139703   5.050   2.391   6.450 -0.5663  0.7710  1.2095
12754SOL    HW239704   4.906   2.436   6.463 -0.5517  1.5763 -0.9691
12755SOL     OW39705   4.800   1.123   7.184  0.6349 -0.3135 -0.4982
12755SOL    HW139706   4.883   1.080   7.207  0.7853 -0.5333 -1.4354
12755SOL    HW239707   4.744   1.053   7.153 -0.4780 -0.4268  1.5680
12756SOL     OW39708   5.680   1.332   5.722 -0.8475 -0.2103 -0.6697
12756SOL    HW139709   5.695   1.238   5.738 -0.5451 -0.0071  0.3294
12756SOL    HW239710   5.635   1.335   5.638  0.6934 -1.1364 -1.5692
12757SOL     OW39711   6.901   0.703   5.762  0.2626  0.3629 -0.7433
12757SOL    HW139712   6.854   0.756   5.697 -0.7150 -1.7834 -1.9035
12757SOL    HW239713   6.990   0.698   5.729  0.4767  1.5690 -0.4021
12758SOL     OW39714   5.128   2.888   5.165  0.4853 -0.2932  0.1071
12758SOL    HW139715   5.085   2.933   5.238  1.2445  1.0658 -0.2572
12758SOL    HW239716   5.096   2.933   5.087 -1.0712 -2.3469 -0.5374
12759SOL     OW39717   4.601   2.358   7.512 -0.3076 -0.3475  0.1204
12759SOL    HW139718   4.611   2.316   7.426 -2.5470 -1.6900  0.4361
12759SOL    HW239719   4.570   2.288   7.570  3.0483 -0.0005  2.6324
12760SOL     OW39720   4.542   7.909   6.744 -0.4889  0.6649  0.2004
12760SOL    HW139721   4.568   7.986   6.795  1.6293  0.3022 -0.2145
12760SOL    HW239722   4.513   7.944   6.660 -2.1784  1.1443  0.9519
12761SOL     OW39723   5.377   2.055   8.913 -0.4390  0.3605  0.5202
12761SOL    HW139724   5.303   2.030   8.857  0.0869  0.2377 -0.1438
12761SOL    HW239725   5.338   2.104   8.985 -1.2306 -0.2287  0.5069
12762SOL     OW39726   4.127   0.161   6.247  0.3481 -0.0609  0.4500
12762SOL    HW139727   4.206   0.165   6.302  0.9973 -1.3333 -0.3407
12762SOL    HW239728   4.122   0.248   6.207  2.5959 -0.5800 -1.1210
12763SOL     OW39729   5.283   0.484   5.505  0.2632  0.0975  0.2970
12763SOL    HW139730   5.192   0.454   5.512  0.3459 -0.0936  0.5779
12763SOL    HW239731   5.314   0.485   5.596  0.4451  0.4593  0.2332
12764SOL     OW39732   5.923   3.301   7.525 -0.0838 -0.0491  0.4621
12764SOL    HW139733   5.962   3.326   7.609 -1.0871 -0.5648  1.1017
12764SOL    HW239734   5.847   3.248   7.549 -0.8787  0.4975 -0.7594
12765SOL     OW39735   5.090   0.873   8.573  0.0541 -0.0119  0.2997
12765SOL    HW139736   5.085   0.814   8.647  0.0204  1.2757  1.3691
12765SOL    HW239737   5.012   0.928   8.581  0.7077  0.9763  0.0653
12766SOL     OW39738   4.826   2.931   5.946  0.2766  0.5633 -0.0377
12766SOL    HW139739   4.739   2.920   5.985  0.9191 -1.9964  0.8710
12766SOL    HW239740   4.807   2.960   5.856 -1.3426  2.9548  0.9539
12767SOL     OW39741   6.309   7.357   3.877 -0.3783 -0.3895 -0.1810
12767SOL    HW139742   6.354   7.322   3.954 -0.3845 -0.6140 -0.2766
12767SOL    HW239743   6.311   7.452   3.889  0.9576 -0.3360 -0.6287
12768SOL     OW39744   5.657   1.254   6.313  0.0392  0.3305  0.4310
12768SOL    HW139745   5.718   1.213   6.252 -4.0687 -1.9730 -2.6860
12768SOL    HW239746   5.665   1.348   6.295  0.9232 -0.0871 -1.7038
12769SOL     OW39747   3.535   1.564   7.244  0.2419 -0.1632 -0.2326
12769SOL    HW139748   3.547   1.501   7.315 -1.0416  0.3167  0.4277
12769SOL    HW239749   3.594   1.533   7.175  2.2079 -0.1167  1.3486
12770SOL     OW39750   2.994   1.619   6.064 -0.7079  0.3138 -0.1881
12770SOL    HW139751   2.947   1.575   6.135  0.7701 -0.6212  0.2458
12770SOL    HW239752   3.008   1.708   6.097  0.1514 -0.1699  0.8223
12771SOL     OW39753   4.028   6.666   7.694 -0.6605  0.3078 -0.1895
12771SOL    HW139754   4.019   6.596   7.630 -0.9070  0.7645 -0.6628
12771SOL    HW239755   4.122   6.682   7.700 -0.6396  0.2809 -0.4554
12772SOL     OW39756   7.099   1.376   6.425 -0.0816 -0.0306 -0.1266
12772SOL    HW139757   7.093   1.472   6.428  2.2554  0.4103 -3.9562
12772SOL    HW239758   7.176   1.356   6.478 -0.2409  0.2402  0.2173
12773SOL     OW39759   7.657   0.616   6.739  0.0946 -0.2508 -0.3473
12773SOL    HW139760   7.669   0.522   6.724  0.4027 -0.3073  0.2293
12773SOL    HW239761   7.676   0.628   6.832  1.6630  0.6384 -0.7495
12774SOL     OW39762   3.355   1.316   6.499 -0.4076  0.3495 -0.1637
12774SOL    HW139763   3.379   1.360   6.581  1.4085 -0.5772 -0.1398
12774SOL    HW239764   3.433   1.265   6.476 -0.5830  1.1816 -2.8914
12775SOL     OW39765   5.735   1.572   7.284  0.2223 -0.3290  0.8396
12775SOL    HW139766   5.771   1.604   7.201  1.7503 -3.1500  0.2862
12775SOL    HW239767   5.796   1.605   7.350  0.2712  0.0739  0.6021
12776SOL     OW39768   5.205   0.370   7.375 -0.0607  0.2462  0.3395
12776SOL    HW139769   5.149   0.310   7.425  0.1164 -1.8166 -1.7446
12776SOL    HW239770   5.233   0.435   7.439 -1.6899 -0.8856  2.3510
12777SOL     OW39771   2.997   7.148   8.176  0.4069 -0.4391 -0.0313
12777SOL    HW139772   2.976   7.058   8.149  0.8459 -1.1817  1.9475
12777SOL    HW239773   3.083   7.165   8.138  0.9590 -1.3972  0.7533
12778SOL     OW39774   3.622   7.512   8.552 -0.0957 -0.3117 -0.3782
12778SOL    HW139775   3.550   7.462   8.515 -0.5809  0.8040 -1.0171
12778SOL    HW239776   3.678   7.447   8.595 -0.5228 -1.4166 -1.4369
12779SOL     OW39777   4.159   7.858   9.649 -0.6519  0.0055  0.4014
12779SOL    HW139778   4.092   7.922   9.675  0.3168  2.5212 -2.5966
12779SOL    HW239779   4.109   7.781   9.621 -1.9686  0.0550  2.4371
12780SOL     OW39780   5.678   7.984   7.106  0.0762  0.1036  0.4427
12780SOL    HW139781   5.696   7.941   7.023  0.5850  0.6700  0.2476
12780SOL    HW239782   5.764   8.016   7.136 -0.2193  0.5987  0.7840
12781SOL     OW39783   5.449   0.180   7.114  0.5411  0.0167  0.1136
12781SOL    HW139784   5.532   0.137   7.135  0.6585  0.3688  0.3873
12781SOL    HW239785   5.461   0.214   7.026  1.1052  1.0302  0.5562
12782SOL     OW39786   6.053   0.052   6.326 -0.4504 -0.5088 -0.3131
12782SOL    HW139787   6.088   0.087   6.408  1.1405  0.6207 -1.4098
12782SOL    HW239788   6.083  -0.039   6.323 -2.3921 -1.2752  1.3370
12783SOL     OW39789   3.680   7.733   6.240  0.6365  0.3949  0.1497
12783SOL    HW139790   3.614   7.761   6.304 -0.2961 -1.1160 -0.1014
12783SOL    HW239791   3.630   7.715   6.160  1.5429  0.5401 -0.4646
12784SOL     OW39792   2.688   1.559   7.371  0.8624  0.3719  0.0077
12784SOL    HW139793   2.738   1.587   7.448  0.8352  2.1689 -0.5793
12784SOL    HW239794   2.754   1.529   7.309  1.0115  0.5154  0.0967
12785SOL     OW39795   5.546   1.155   8.001 -0.1759 -0.2776  0.2319
12785SOL    HW139796   5.531   1.188   8.090 -0.5197  1.6183 -0.4827
12785SOL    HW239797   5.514   1.225   7.944  2.1172 -0.4480 -1.4004
12786SOL     OW39798   2.719   3.024   8.020  0.1411 -0.3796  0.5068
12786SOL    HW139799   2.666   3.090   8.064 -1.4525 -0.6776 -0.8765
12786SOL    HW239800   2.708   3.042   7.927  1.6936 -1.0749  0.1504
12787SOL     OW39801   5.915   1.705   7.750 -0.3725  0.0786  0.2302
12787SOL    HW139802   5.960   1.755   7.818 -1.7965  1.2677  0.3389
12787SOL    HW239803   5.892   1.622   7.792  3.1008 -1.3135 -0.3049
12788SOL     OW39804   3.489   1.504   9.505  0.5078  0.2205  0.1895
12788SOL    HW139805   3.555   1.437   9.487 -0.4184 -0.5010 -0.6899
12788SOL    HW239806   3.528   1.559   9.573  1.8204 -0.4380  0.0033
12789SOL     OW39807   5.201   0.513   7.852 -0.0414 -0.0682 -0.4161
12789SOL    HW139808   5.233   0.462   7.778  2.1362 -0.1703  0.5307
12789SOL    HW239809   5.114   0.477   7.870  1.1031 -2.9667 -0.2271
12790SOL     OW39810   3.246   2.930   5.629  0.3059 -0.2163 -0.2726
12790SOL    HW139811   3.170   2.885   5.666 -0.1879  1.0993  0.3760
12790SOL    HW239812   3.296   2.861   5.585 -2.0385 -0.8937 -2.0483
12791SOL     OW39813   4.600   0.448  10.051 -0.2182  0.3155  0.0218
12791SOL    HW139814   4.695   0.458  10.056 -0.0230 -1.2070 -0.2129
12791SOL    HW239815   4.587   0.367  10.001 -1.6234 -0.1031  1.0166
12792SOL     OW39816   3.940   0.447   7.490  0.1043  0.3127 -0.4692
12792SOL    HW139817   4.019   0.399   7.465 -0.1842 -0.3950 -0.0633
12792SOL    HW239818   3.870   0.380   7.490 -0.4071  0.8371 -0.3993
12793SOL     OW39819   4.913   2.025   7.540  0.4616  0.1195  0.4658
12793SOL    HW139820   4.837   2.065   7.498  0.2883 -1.1246 -0.4668
12793SOL    HW239821   4.962   2.099   7.577 -0.7997  1.0056  0.4325
12794SOL     OW39822   3.419   0.850   9.533 -0.3613 -1.0058  0.4914
12794SOL    HW139823   3.405   0.918   9.468  0.4935  1.2531  2.5034
12794SOL    HW239824   3.444   0.773   9.482  0.2207  0.6073 -1.8442
12795SOL     OW39825   2.191   0.504   9.131  0.5473  0.1012 -0.2804
12795SOL    HW139826   2.159   0.573   9.073 -0.2694 -0.6072 -0.6919
12795SOL    HW239827   2.250   0.452   9.078  0.4184 -0.0768 -0.2525
12796SOL     OW39828   6.269   1.175   8.302  0.0189 -0.3843  0.2290
12796SOL    HW139829   6.262   1.240   8.232  1.7358  0.2513  0.6105
12796SOL    HW239830   6.355   1.190   8.341  0.3663 -2.7254  0.4921
12797SOL     OW39831   4.331   7.795   8.135 -0.0069 -0.0790  0.2817
12797SOL    HW139832   4.243   7.831   8.122 -0.5019 -0.3055  2.6552
12797SOL    HW239833   4.387   7.872   8.143  0.1319  0.0686 -1.5709
12798SOL     OW39834   5.688   1.900   7.895  0.1712 -0.2128  0.4976
12798SOL    HW139835   5.764   1.853   7.930  3.1968  3.3031 -0.5970
12798SOL    HW239836   5.678   1.975   7.953 -1.7875 -0.0067 -0.0497
12799SOL     OW39837   3.680   2.165   7.041 -0.0684  0.1641  0.1529
12799SOL    HW139838   3.762   2.204   7.010 -0.2272 -0.0091 -0.5075
12799SOL    HW239839   3.670   2.086   6.988 -1.8125  1.3578 -1.4347
12800SOL     OW39840   4.864   0.983   8.910 -0.1003 -0.2711  0.1245
12800SOL    HW139841   4.797   0.925   8.875  1.4195 -2.6009  0.8897
12800SOL    HW239842   4.816   1.040   8.971 -1.6409 -0.6867 -0.6455
12801SOL     OW39843   6.677   2.712   8.032 -0.3925 -0.1288  0.3733
12801SOL    HW139844   6.629   2.635   8.001 -1.3227  0.4346  0.3842
12801SOL    HW239845   6.636   2.734   8.116  1.3651 -0.9665  1.4932
12802SOL     OW39846   3.978   0.385   8.741 -0.8369 -0.6668  0.2999
12802SOL    HW139847   3.892   0.429   8.742 -0.0243  1.0237  2.1848
12802SOL    HW239848   4.011   0.395   8.830  1.6248 -0.7013 -0.5523
12803SOL     OW39849   4.247   2.909   9.484  0.2756 -0.2427  0.1223
12803SOL    HW139850   4.304   2.904   9.561 -1.3811  0.4137  1.4696
12803SOL    HW239851   4.270   2.992   9.443  0.0816  0.1672  0.8296
12804SOL     OW39852   5.385   0.917   8.050  0.5606 -0.0108 -0.0655
12804SOL    HW139853   5.441   0.989   8.021  1.0956 -0.3779  0.0325
12804SOL    HW239854   5.298   0.956   8.060  0.9095  0.6942  0.3020
12805SOL     OW39855   5.155   6.452   8.213  0.5129 -0.5763 -0.3531
12805SOL    HW139856   5.149   6.528   8.270  3.9151 -0.3889 -0.0606
12805SOL    HW239857   5.158   6.377   8.273  0.5584 -0.6626 -0.4616
12806SOL     OW39858   3.171   0.857   9.135  0.1532 -0.3546 -0.3457
12806SOL    HW139859   3.176   0.880   9.042  1.7383 -0.6713 -0.3568
12806SOL    HW239860   3.134   0.935   9.177  2.0975  0.8965 -0.8614
12807SOL     OW39861   5.135   1.697   7.247 -0.1419  0.1352 -0.1752
12807SOL    HW139862   5.108   1.673   7.158 -1.1773  1.5173 -0.2808
12807SOL    HW239863   5.054   1.724   7.290  0.0747 -1.9699  1.7381
12808SOL     OW39864   3.522   2.267   8.956 -0.4854  0.2841  0.1542
12808SOL    HW139865   3.486   2.215   8.884  0.2306 -0.0969  0.0605
12808SOL    HW239866   3.447   2.284   9.013 -0.4095 -2.9140  1.4590
12809SOL     OW39867   3.035   7.877   8.671 -0.1503 -0.3230  0.5244
12809SOL    HW139868   3.020   7.948   8.734 -0.1243  1.1501 -1.0608
12809SOL    HW239869   3.129   7.882   8.653  0.4988 -2.7606  2.6072
12810SOL     OW39870   6.745   3.534   9.189  0.2202 -0.0482  0.0025
12810SOL    HW139871   6.701   3.495   9.113  0.7691 -0.6205 -0.0351
12810SOL    HW239872   6.723   3.627   9.184  0.7684  0.0445 -1.2436
12811SOL     OW39873   6.253   1.445   6.341 -0.7491  0.6119  0.1260
12811SOL    HW139874   6.173   1.438   6.394 -1.8370 -1.1877 -1.6041
12811SOL    HW239875   6.222   1.450   6.251  1.0824  1.6079 -0.5011
12812SOL     OW39876   4.623   1.057   5.780  0.6563  0.1849 -0.3317
12812SOL    HW139877   4.573   1.096   5.852  1.6390 -0.7108  0.8834
12812SOL    HW239878   4.557   1.013   5.726  0.0889 -1.1653  1.3590
12813SOL     OW39879   5.600   0.652   7.507 -0.0098 -0.0349  0.0646
12813SOL    HW139880   5.562   0.676   7.591  0.6993  1.5551 -0.0379
12813SOL    HW239881   5.670   0.716   7.493 -0.7677  0.4096 -2.1964
12814SOL     OW39882   6.738   1.792   7.510  0.1182 -0.1840 -0.4430
12814SOL    HW139883   6.817   1.775   7.459 -0.0016  0.5611 -0.9041
12814SOL    HW239884   6.666   1.778   7.448 -0.0317  0.6653 -0.4788
12815SOL     OW39885   4.243   0.943   8.353 -0.1884  0.0500  0.3029
12815SOL    HW139886   4.288   1.027   8.343 -1.8051  0.6973 -2.5981
12815SOL    HW239887   4.314   0.880   8.368  1.5731  1.3310 -1.9872
12816SOL     OW39888   4.075   0.081   8.885 -0.5681 -0.7496 -0.2827
12816SOL    HW139889   4.120   0.158   8.921  1.5638 -1.5893 -0.9616
12816SOL    HW239890   4.074   0.018   8.957 -0.1742 -0.9010 -0.4035
12817SOL     OW39891   4.923   0.039   8.444 -0.0767 -0.2518 -0.5740
12817SOL    HW139892   4.923   0.011   8.353 -0.0556 -0.5756 -0.4759
12817SOL    HW239893   4.994  -0.010   8.485 -0.2133 -0.2536 -0.3385
12818SOL     OW39894   4.797   6.237   7.468 -0.5250  0.0627  0.0316
12818SOL    HW139895   4.863   6.171   7.448 -1.7353 -0.9559 -0.6835
12818SOL    HW239896   4.746   6.199   7.539 -1.4396  0.0665 -0.6110
12819SOL     OW39897   5.274   1.804   7.529 -0.6975  0.1264 -0.7110
12819SOL    HW139898   5.309   1.829   7.614 -1.3619  0.9000 -0.6519
12819SOL    HW239899   5.217   1.730   7.546  2.2187 -2.3938 -1.0428
12820SOL     OW39900   4.406   0.181   8.864 -0.3240  1.0017  0.0723
12820SOL    HW139901   4.394   0.114   8.931 -0.7906  0.7248 -0.2801
12820SOL    HW239902   4.457   0.249   8.907 -0.5206  0.7778  0.6711
12821SOL     OW39903   4.497   1.791   9.975  0.5621  0.3767  0.6841
12821SOL    HW139904   4.429   1.847  10.011  0.8830  0.3599  1.3313
12821SOL    HW239905   4.557   1.852   9.930 -0.2339  0.3224 -0.5014
12822SOL     OW39906   5.733   0.942   6.599 -0.0172 -0.3588 -0.6598
12822SOL    HW139907   5.701   0.856   6.625  1.3014 -0.2594  1.5081
12822SOL    HW239908   5.660   1.001   6.619  0.4518 -0.4878  1.5916
12823SOL     OW39909   5.315   1.279   9.274 -0.2272 -0.4697 -0.5515
12823SOL    HW139910   5.354   1.200   9.237  0.1933  0.3995 -2.0562
12823SOL    HW239911   5.269   1.249   9.353 -0.3267 -2.2314 -1.2444
12824SOL     OW39912   6.217   2.392   7.725 -0.1467  0.0106  0.0462
12824SOL    HW139913   6.292   2.425   7.676  0.7797  1.2061  2.1371
12824SOL    HW239914   6.168   2.340   7.661  1.8131  0.1498 -1.6900
12825SOL     OW39915   4.119   0.031   8.276  0.1545 -0.3932  0.1662
12825SOL    HW139916   4.103   0.019   8.182 -1.4387  0.0560  0.3539
12825SOL    HW239917   4.162   0.116   8.282 -0.1964 -0.1860 -0.1353
12826SOL     OW39918   4.624   1.806   7.569 -0.1993 -0.0397 -0.1379
12826SOL    HW139919   4.571   1.767   7.639  0.0156  0.4382  0.2952
12826SOL    HW239920   4.604   1.753   7.492 -0.1598 -0.8025  0.3641
12827SOL     OW39921   3.983   1.780   7.795  0.3616 -0.0709 -0.1719
12827SOL    HW139922   3.967   1.858   7.848  1.0012 -0.4350  0.5800
12827SOL    HW239923   3.996   1.813   7.706 -1.0831  0.5235 -0.1983
12828SOL     OW39924   3.726   7.485   8.912 -0.5885  0.2114  0.0047
12828SOL    HW139925   3.792   7.419   8.932 -1.4221 -0.9008 -0.8237
12828SOL    HW239926   3.777   7.564   8.892  0.4011  0.9036  4.1977
12829SOL     OW39927   5.986   1.032   9.577  0.2024  0.7686  0.1446
12829SOL    HW139928   6.045   0.981   9.521  0.4261 -0.6369  1.6029
12829SOL    HW239929   5.901   0.989   9.567 -0.1671  1.6006 -0.4402
12830SOL     OW39930   3.273   1.943   5.486 -0.0501 -0.2578  0.2783
12830SOL    HW139931   3.268   2.037   5.468 -2.2940 -0.1010  1.4474
12830SOL    HW239932   3.361   1.918   5.457  0.3144  2.0235 -0.7942
12831SOL     OW39933   4.947   1.675   7.731  0.0779 -0.4081  0.5074
12831SOL    HW139934   4.872   1.622   7.759  1.0467 -0.8872  2.3057
12831SOL    HW239935   4.919   1.765   7.747 -1.6026 -0.2377 -2.6234
12832SOL     OW39936   4.121   2.245   8.121  0.2497 -0.0341 -0.2261
12832SOL    HW139937   4.070   2.183   8.068  0.1104 -1.2590  1.2679
12832SOL    HW239938   4.205   2.252   8.076  0.1182 -0.9985 -0.6461
12833SOL     OW39939   4.935   0.447   7.896  0.0275  0.3399  0.0126
12833SOL    HW139940   4.871   0.517   7.911  1.0499  0.8982  2.2419
12833SOL    HW239941   4.883   0.368   7.886 -1.0497  0.9622  0.5909
12834SOL     OW39942   4.755   7.527   9.083 -0.7791 -0.2627 -0.7513
12834SOL    HW139943   4.690   7.568   9.026 -2.8547 -0.9446  0.9868
12834SOL    HW239944   4.770   7.591   9.153 -0.5597 -0.6201 -0.4626
12835SOL     OW39945   4.663   0.838   7.554 -0.0987  0.2945  0.0507
12835SOL    HW139946   4.670   0.798   7.641  2.6025 -0.1219 -0.2852
12835SOL    HW239947   4.662   0.764   7.493  0.9939  0.6311 -0.3977
12836SOL     OW39948   3.615   2.891   6.515 -0.3226  0.4203 -0.0875
12836SOL    HW139949   3.709   2.909   6.524 -0.0964 -0.6245 -0.2020
12836SOL    HW239950   3.593   2.922   6.427 -0.3032  1.5351  0.2920
12837SOL     OW39951   5.429   0.679   8.193  0.1322 -0.2172 -0.0407
12837SOL    HW139952   5.445   0.664   8.287  0.1195 -2.0522 -0.3002
12837SOL    HW239953   5.442   0.773   8.182  1.9014 -0.2171  1.4725
12838SOL     OW39954   3.874   2.061   7.889 -0.5860 -0.3279  0.1888
12838SOL    HW139955   3.788   2.053   7.929 -1.5652 -0.1512 -1.7743
12838SOL    HW239956   3.884   2.154   7.868  0.5726 -0.1541  1.3550
12839SOL     OW39957   4.659   3.614   8.063 -0.2315  0.0812 -0.5812
12839SOL    HW139958   4.577   3.595   8.109  0.1877 -1.1786 -0.2973
12839SOL    HW239959   4.634   3.673   7.992 -1.4240 -0.4475 -0.6218
12840SOL     OW39960   5.264   2.283   8.457 -0.5880  0.1593 -0.2687
12840SOL    HW139961   5.270   2.307   8.365 -0.6863 -0.0832 -0.3406
12840SOL    HW239962   5.193   2.218   8.460 -0.4841  0.0543 -0.0465
12841SOL     OW39963   5.609   1.300  10.389  0.2812  0.2013 -1.3155
12841SOL    HW139964   5.586   1.338  10.304 -2.0240  0.0022 -0.8541
12841SOL    HW239965   5.525   1.271  10.425  1.3965 -1.0600  0.3968
12842SOL     OW39966   4.380   0.556   8.879  0.7902  0.1515  0.2224
12842SOL    HW139967   4.365   0.645   8.846  0.0627  0.6758  1.8598
12842SOL    HW239968   4.328   0.500   8.821 -1.6821  1.1901  1.2681
12843SOL     OW39969   4.787   1.969   9.625 -0.5239 -0.7305  0.5212
12843SOL    HW139970   4.849   2.007   9.561 -0.3263  0.3546  1.3210
12843SOL    HW239971   4.703   2.007   9.601 -0.4878 -0.4947  0.7626
12844SOL     OW39972   3.812   0.303   9.207  0.8860  0.2895 -0.0428
12844SOL    HW139973   3.820   0.210   9.225  1.6026  0.3817  0.1613
12844SOL    HW239974   3.721   0.324   9.226  0.5436 -0.5067 -0.7596
12845SOL     OW39975   4.180   7.036   8.559  0.1037 -0.0770  0.3980
12845SOL    HW139976   4.199   6.944   8.575 -1.9518 -0.2831  2.0887
12845SOL    HW239977   4.105   7.055   8.615  0.2669  2.5548 -0.1509
12846SOL     OW39978   3.156   7.149   9.649  0.2673  0.3315 -0.3576
12846SOL    HW139979   3.117   7.109   9.727 -0.1617 -1.2328 -1.3433
12846SOL    HW239980   3.250   7.132   9.658  0.2710  0.5251  0.0102
12847SOL     OW39981   5.797   7.778   9.020  0.3309 -0.4097  0.3572
12847SOL    HW139982   5.853   7.779   8.943 -0.7395  1.6432 -0.4855
12847SOL    HW239983   5.850   7.818   9.089  0.5658 -0.2277  0.0755
12848SOL     OW39984   4.879   7.868   9.080  0.4487 -0.2305 -0.1093
12848SOL    HW139985   4.880   7.896   9.171  0.4367 -0.4056 -0.0566
12848SOL    HW239986   4.956   7.911   9.041  0.6016 -0.3635  0.0439
12849SOL     OW39987   4.502   0.011   8.081  0.0392  0.5457 -0.0691
12849SOL    HW139988   4.571  -0.043   8.044 -0.1858  0.3124 -0.1567
12849SOL    HW239989   4.460   0.052   8.006 -1.4440 -1.1637 -0.2487
12850SOL     OW39990   5.042   0.848   8.248 -0.3512  0.4681  0.9960
12850SOL    HW139991   5.078   0.916   8.191  1.3016 -0.2501  1.1320
12850SOL    HW239992   5.074   0.871   8.335 -0.8712  0.2369  1.2500
12851SOL     OW39993   4.147   1.515   7.095 -0.1119 -0.1139  0.1079
12851SOL    HW139994   4.231   1.530   7.052  0.1216  0.0337  0.6081
12851SOL    HW239995   4.148   1.573   7.171 -0.3348 -0.6974  0.5638
12852SOL     OW39996   4.166   7.351   8.470  0.6914 -0.1543 -0.6921
12852SOL    HW139997   4.160   7.390   8.557 -0.4864  2.0779 -1.6704
12852SOL    HW239998   4.079   7.313   8.455  1.3261 -1.8045 -0.3900
12853SOL     OW39999   4.927   0.023   7.595 -0.3089  0.0976  0.2321
12853SOL    HW140000   4.959  -0.067   7.599 -1.8571 -0.5013 -0.0879
12853SOL    HW240001   4.832   0.015   7.594 -0.4960  1.7706  0.6964
12854SOL     OW40002   6.842   0.188   7.209  0.4529 -0.2660 -0.0222
12854SOL    HW140003   6.753   0.195   7.173  1.2528 -0.2965 -2.1669
12854SOL    HW240004   6.830   0.197   7.304 -1.3954  3.9494 -0.4303
12855SOL     OW40005   4.512   0.989   9.157 -0.2451 -0.4781 -0.0711
12855SOL    HW140006   4.549   0.901   9.146 -0.3514 -0.6158  0.6535
12855SOL    HW240007   4.419   0.974   9.174 -0.4363 -0.1795 -0.7912
12856SOL     OW40008   3.136   7.886   8.069 -0.3829  0.6765  0.3154
12856SOL    HW140009   3.111   7.803   8.029  1.2639  1.2698 -2.1872
12856SOL    HW240010   3.063   7.945   8.050  0.4636  1.0083 -2.1916
12857SOL     OW40011   4.887   0.188   6.838  0.1825  0.7250  0.2758
12857SOL    HW140012   4.949   0.179   6.765  0.1752  1.5127  0.1621
12857SOL    HW240013   4.905   0.113   6.894  1.7533  1.2895  0.6087
12858SOL     OW40014   4.089   6.636   8.205  0.2798  0.4182 -0.0124
12858SOL    HW140015   4.050   6.623   8.119 -0.6051 -1.3914  0.5900
12858SOL    HW240016   4.136   6.554   8.222  0.1175  0.5879  1.3605
12859SOL     OW40017   5.101   3.298   7.302  0.3423  0.1959 -0.5667
12859SOL    HW140018   5.116   3.300   7.397 -0.4944 -0.8631 -0.3830
12859SOL    HW240019   5.008   3.274   7.294 -0.2615  2.5901 -1.6427
12860SOL     OW40020   4.559   0.129   9.388  0.4271 -0.0959  0.5276
12860SOL    HW140021   4.643   0.085   9.402  0.8198  0.1007 -0.9924
12860SOL    HW240022   4.542   0.177   9.469  2.1329  0.4139  0.6118
12861SOL     OW40023   6.112   6.942   7.796  0.1079 -0.0128  0.8781
12861SOL    HW140024   6.200   6.979   7.789  0.3303 -0.7753 -0.5403
12861SOL    HW240025   6.113   6.865   7.740 -2.0982  1.1714 -0.9932
12862SOL     OW40026   4.532   2.432   8.133 -0.3941 -0.2417  0.0832
12862SOL    HW140027   4.463   2.477   8.085  0.6984  1.7469  0.2834
12862SOL    HW240028   4.548   2.487   8.210 -0.0000 -1.7596  1.1408
12863SOL     OW40029   6.624   0.824   6.886 -0.4175 -0.1809 -0.3925
12863SOL    HW140030   6.680   0.886   6.840 -0.0810 -0.5886 -0.5394
12863SOL    HW240031   6.673   0.802   6.965 -0.3285 -0.6126 -0.5683
12864SOL     OW40032   6.222   6.913   8.412  0.9491 -0.4063 -0.4664
12864SOL    HW140033   6.239   6.952   8.327  0.6928 -1.2930 -0.9436
12864SOL    HW240034   6.298   6.857   8.428  1.4243  0.4414  0.3154
12865SOL     OW40035   4.525   0.693   7.787  0.2517 -0.2293 -0.5643
12865SOL    HW140036   4.497   0.604   7.811  1.7527 -0.2729  1.2984
12865SOL    HW240037   4.458   0.750   7.823  0.5290 -0.5206  0.4703
12866SOL     OW40038   7.627   2.180   7.796 -0.1873  0.3086  0.5021
12866SOL    HW140039   7.615   2.099   7.845 -1.0482  0.8870  1.2849
12866SOL    HW240040   7.643   2.246   7.863 -1.8440  1.2072  0.0826
12867SOL     OW40041   4.100   1.655   8.400  0.0491  0.9880  0.2291
12867SOL    HW140042   4.025   1.713   8.391 -1.4052 -0.4425  2.2108
12867SOL    HW240043   4.096   1.623   8.491  0.2628 -2.7870 -0.8904
12868SOL     OW40044   3.989   3.018   9.323 -0.1289 -0.3172  0.1110
12868SOL    HW140045   4.019   2.976   9.242  1.0465  0.1132  0.3081
12868SOL    HW240046   4.065   3.067   9.354 -0.9136  0.4326  0.8848
12869SOL     OW40047   4.498   7.596   8.208 -0.1300 -0.6216  0.1014
12869SOL    HW140048   4.476   7.602   8.301 -3.2421 -1.8560 -0.4443
12869SOL    HW240049   4.438   7.656   8.165  0.3086 -1.1029 -1.2277
12870SOL     OW40050   6.133   1.983   9.624  0.0400  0.3999 -0.1925
12870SOL    HW140051   6.084   2.056   9.587  0.2306  0.8524  0.4283
12870SOL    HW240052   6.113   1.985   9.718 -0.9067 -1.0830 -0.3196
12871SOL     OW40053   5.261   6.838   9.366  0.2565  0.4027  0.0742
12871SOL    HW140054   5.309   6.788   9.432  3.3274  0.1725 -2.0918
12871SOL    HW240055   5.302   6.925   9.368 -0.2416  0.6727 -0.8404
12872SOL     OW40056   5.661   2.252   7.771 -0.3934  0.1336 -0.0394
12872SOL    HW140057   5.684   2.180   7.829 -1.1726  0.0143  0.1268
12872SOL    HW240058   5.590   2.297   7.816 -0.9744  0.0680 -0.8792
12873SOL     OW40059   3.523   1.092   6.991 -0.1482  0.1559  0.5167
12873SOL    HW140060   3.573   1.011   6.992  0.6443  0.6407  0.6159
12873SOL    HW240061   3.439   1.069   7.031  0.1837 -0.5334  0.8231
12874SOL     OW40062   4.324   1.451   7.781  0.1133  0.2387 -0.1826
12874SOL    HW140063   4.342   1.395   7.706 -0.1382  0.2242 -0.2334
12874SOL    HW240064   4.229   1.466   7.778 -0.0356 -0.4312  0.5854
12875SOL     OW40065   3.456   6.984   8.940  0.2811  0.2912  0.4488
12875SOL    HW140066   3.496   7.022   9.019 -1.0493  0.3675  1.1103
12875SOL    HW240067   3.366   7.016   8.941  0.4353  0.9370 -1.5375
12876SOL     OW40068   3.638   0.354   9.915 -0.2673  0.0769  0.0272
12876SOL    HW140069   3.651   0.375  10.007  0.6128 -1.3977  0.2830
12876SOL    HW240070   3.657   0.435   9.868  0.8482  0.4359  1.0530
12877SOL     OW40071   5.239   7.604   7.699  0.0437  0.0725  0.1936
12877SOL    HW140072   5.155   7.626   7.659 -0.1997  0.9728  1.1404
12877SOL    HW240073   5.216   7.564   7.782  0.5092 -3.3303 -1.1756
12878SOL     OW40074   3.675   0.080   8.818  0.2795  0.4461 -0.1536
12878SOL    HW140075   3.769   0.075   8.804  0.3033  0.8861 -0.1736
12878SOL    HW240076   3.661   0.043   8.905  0.5334  0.8577  0.0654
12879SOL     OW40077   5.189   1.720   8.254 -0.4635  0.2944  0.0995
12879SOL    HW140078   5.280   1.746   8.271 -0.1232 -1.0138  0.3532
12879SOL    HW240079   5.196   1.635   8.210 -1.5868 -0.8631  2.0371
12880SOL     OW40080   5.228   0.941   6.820  0.5035 -0.4998  0.4484
12880SOL    HW140081   5.291   0.944   6.748  1.6321 -0.0738  1.4152
12880SOL    HW240082   5.277   0.974   6.896 -0.8012 -0.4581  1.3006
12881SOL     OW40083   4.964   0.755   7.666  0.1315 -0.2329 -0.0703
12881SOL    HW140084   4.934   0.741   7.756  0.0530 -0.2297 -0.0957
12881SOL    HW240085   4.979   0.849   7.660  0.7870 -0.3160  0.1393
12882SOL     OW40086   4.242   7.813  10.090 -0.8320 -0.6044 -0.0724
12882SOL    HW140087   4.200   7.751  10.031 -2.7363  0.1618  0.4067
12882SOL    HW240088   4.335   7.810  10.066 -1.4879 -0.3668 -3.0812
12883SOL     OW40089   4.371   7.435   9.187 -0.3888  0.1295 -0.0864
12883SOL    HW140090   4.395   7.528   9.191  0.5646 -0.0984 -0.3151
12883SOL    HW240091   4.454   7.388   9.194 -0.8970 -0.7220  0.4056
12884SOL     OW40092   3.839   7.921   8.066  0.2563  0.0160  0.0136
12884SOL    HW140093   3.765   7.918   8.005  0.1869 -0.9663  0.1260
12884SOL    HW240094   3.815   7.989   8.129 -0.9462 -0.8410  0.5201
12885SOL     OW40095   5.180   7.283   8.527  0.6421 -0.1909 -0.1065
12885SOL    HW140096   5.167   7.243   8.613 -0.4207  0.4437  0.0514
12885SOL    HW240097   5.275   7.280   8.513  0.6515 -2.3022  0.0907
12886SOL     OW40098   4.098   0.739   8.487  0.4291  0.5754  0.4619
12886SOL    HW140099   4.011   0.778   8.482 -0.7290 -1.7765  0.6103
12886SOL    HW240100   4.146   0.780   8.415 -2.4826 -1.6922 -3.2036
12887SOL     OW40101   4.813   2.167   9.384  0.6318 -0.1716 -0.6392
12887SOL    HW140102   4.900   2.127   9.394  0.5219 -0.4171 -0.6585
12887SOL    HW240103   4.811   2.237   9.450  1.0397  0.1740 -0.9914
12888SOL     OW40104   4.814   1.246   7.619  0.1571 -0.5929 -0.2143
12888SOL    HW140105   4.770   1.166   7.647 -0.8558 -0.5264 -1.4863
12888SOL    HW240106   4.817   1.301   7.697 -3.6375  0.0889 -0.3755
12889SOL     OW40107   4.663   0.924   7.073 -0.3477  0.1256 -0.0976
12889SOL    HW140108   4.590   0.865   7.091  0.7191 -0.8706  1.1789
12889SOL    HW240109   4.729   0.869   7.030 -0.5929  1.1692 -1.8625
12890SOL     OW40110   2.612   7.418   8.105 -0.2585  0.3435 -0.0739
12890SOL    HW140111   2.609   7.334   8.060 -1.5700  0.2603  0.1318
12890SOL    HW240112   2.565   7.479   8.048  1.3011  1.1490 -0.5762
12891SOL     OW40113   5.148   2.041   7.320  0.6662 -0.1995  0.1677
12891SOL    HW140114   5.057   2.018   7.339  0.3900 -0.0248 -0.8593
12891SOL    HW240115   5.166   2.115   7.378  0.1121 -0.1605  0.3001
12892SOL     OW40116   5.756   1.796   8.396  0.3958  0.0992 -0.8600
12892SOL    HW140117   5.725   1.854   8.465 -0.9950 -0.6318 -0.8285
12892SOL    HW240118   5.807   1.729   8.443  0.3386  0.1924 -0.6614
12893SOL     OW40119   5.994   1.383   9.347  0.0964  0.0440  0.2708
12893SOL    HW140120   5.979   1.289   9.353 -2.3681  0.3959  1.0568
12893SOL    HW240121   5.990   1.402   9.254  0.9120 -0.6415  0.0808
12894SOL     OW40122   5.260   1.061   7.153  0.0282  0.3383  0.2848
12894SOL    HW140123   5.251   1.142   7.103 -1.6776  0.1909  0.2940
12894SOL    HW240124   5.175   1.017   7.143  0.6473 -1.0652  0.9362
12895SOL     OW40125   5.078   0.598   8.146  0.1540 -0.4772  0.3394
12895SOL    HW140126   5.036   0.579   8.062  0.3557  0.1974  0.0781
12895SOL    HW240127   5.044   0.684   8.170  1.5529  0.1809  0.0196
12896SOL     OW40128   4.001   0.298   8.162  0.7880 -0.6243  0.0725
12896SOL    HW140129   4.016   0.276   8.254 -2.7676  0.7097  1.1309
12896SOL    HW240130   3.931   0.238   8.134 -1.5374  2.0048 -0.1814
12897SOL     OW40131   4.566   1.453   9.649 -0.3239 -0.6330  0.6572
12897SOL    HW140132   4.572   1.524   9.585  1.7626 -2.1992 -1.0424
12897SOL    HW240133   4.640   1.469   9.708  0.0765 -1.3116  0.3420
12898SOL     OW40134   6.841   2.316  10.229 -0.0326  0.0646  0.4396
12898SOL    HW140135   6.867   2.310  10.138  0.9205 -2.0380  0.8056
12898SOL    HW240136   6.838   2.411  10.247 -0.9065  0.5332 -1.9046
12899SOL     OW40137   4.495   0.363   9.583 -0.5397 -0.6568  0.2629
12899SOL    HW140138   4.522   0.322   9.665  1.5120  0.5597  0.2734
12899SOL    HW240139   4.577   0.389   9.541 -1.6175  1.9914 -0.4577
12900SOL     OW40140   5.160   7.953   7.935  0.7644 -0.2298 -0.7004
12900SOL    HW140141   5.206   8.036   7.940  0.3019  0.1468 -2.2025
12900SOL    HW240142   5.134   7.945   7.843 -2.2712 -0.3318  0.0506
12901SOL     OW40143   6.008   1.518   8.214  0.7420 -0.5316  0.4183
12901SOL    HW140144   5.917   1.488   8.217  0.4863  0.2901  1.6213
12901SOL    HW240145   6.003   1.611   8.237  1.8544 -0.3906  0.1419
12902SOL     OW40146   4.217   2.015   8.594  0.4471 -0.0161  0.2446
12902SOL    HW140147   4.137   2.015   8.540 -0.3813 -2.1191  1.3497
12902SOL    HW240148   4.283   1.977   8.536 -0.3633 -1.9690  0.4934
12903SOL     OW40149   4.973   0.521   7.524  0.0403 -0.3228 -0.2764
12903SOL    HW140150   4.974   0.610   7.560  2.4702 -0.7435  0.8726
12903SOL    HW240151   4.980   0.464   7.601 -0.8561 -1.5191 -1.0428
12904SOL     OW40152   3.547   6.994   9.218 -0.1085  0.0321  0.3859
12904SOL    HW140153   3.465   7.004   9.265  1.0826  0.7908  2.4168
12904SOL    HW240154   3.579   6.908   9.243 -1.4363 -1.4137 -2.4518
12905SOL     OW40155   2.891   7.519   8.071  0.5559 -0.1384  0.9269
12905SOL    HW140156   2.815   7.461   8.084  1.6641 -1.7105  0.6696
12905SOL    HW240157   2.925   7.534   8.160 -0.6109  1.4184  1.1544
12906SOL     OW40158   4.202   6.183   8.262  0.3143 -0.1899  0.2541
12906SOL    HW140159   4.125   6.147   8.218 -0.7293  1.5054  0.5855
12906SOL    HW240160   4.208   6.133   8.344  0.0768 -0.9078 -0.1637
12907SOL     OW40161   3.542   2.623   8.771 -0.3831  0.1974 -0.1942
12907SOL    HW140162   3.557   2.543   8.720  0.2616 -0.4975  1.0339
12907SOL    HW240163   3.575   2.694   8.715  2.0629 -0.7194 -0.0477
12908SOL     OW40164   4.088   1.924   7.539 -0.9848 -0.2667 -0.5610
12908SOL    HW140165   4.122   1.947   7.453  0.6237  0.6510  0.2709
12908SOL    HW240166   4.110   1.998   7.595 -0.9380 -1.3305  0.9009
12909SOL     OW40167   4.438   0.751   8.384 -0.1290  0.2964  0.1361
12909SOL    HW140168   4.456   0.686   8.452  0.8840 -0.2933 -0.6673
12909SOL    HW240169   4.520   0.798   8.373  0.1885 -0.6048 -1.6964
12910SOL     OW40170   4.680   6.145   7.698  0.3688 -0.0751  0.1663
12910SOL    HW140171   4.656   6.053   7.688 -2.0215  0.2991  1.5382
12910SOL    HW240172   4.687   6.158   7.793  1.7629  0.9363 -0.0416
12911SOL     OW40173   4.668   1.671   7.355  0.6055  0.0690 -0.2630
12911SOL    HW140174   4.656   1.583   7.392  1.8163  0.3294  0.8322
12911SOL    HW240175   4.673   1.657   7.261 -1.6796 -0.7339 -0.3296
12912SOL     OW40176   4.629   7.831   9.006 -0.1973  0.0642 -0.5265
12912SOL    HW140177   4.631   7.827   8.910 -0.5006 -1.7783 -0.4885
12912SOL    HW240178   4.721   7.828   9.032 -0.1175  0.5032 -0.7519
12913SOL     OW40179   6.146   0.838   7.939 -0.2278 -0.5598  0.1640
12913SOL    HW140180   6.215   0.842   7.873 -1.0755 -0.1751 -0.7176
12913SOL    HW240181   6.153   0.921   7.986  2.2868 -1.9921  2.5945
12914SOL     OW40182   4.771   1.335   9.422 -0.6895 -0.3753  0.3414
12914SOL    HW140183   4.782   1.307   9.513 -2.1812 -1.5705  0.2002
12914SOL    HW240184   4.679   1.319   9.403 -0.7763  1.3788 -0.9087
12915SOL     OW40185   7.530   1.907   7.940  0.2281 -0.0717  0.4286
12915SOL    HW140186   7.567   1.928   8.026  1.9930  2.4822 -0.7930
12915SOL    HW240187   7.440   1.939   7.944 -0.0735 -0.9926  1.6260
12916SOL     OW40188   3.710   1.456  10.700  0.1089 -0.0054 -0.1755
12916SOL    HW140189   3.649   1.443  10.627  0.1485 -0.0853 -0.1942
12916SOL    HW240190   3.654   1.482  10.773  0.1799  1.1766 -0.5244
12917SOL     OW40191   5.323   0.029   8.566 -0.7671  0.6222  0.4990
12917SOL    HW140192   5.359   0.082   8.495 -1.3194  0.9502  0.4481
12917SOL    HW240193   5.269   0.091   8.616 -0.1270  0.4711  1.3928
12918SOL     OW40194   6.063   1.803   8.293  0.3360 -0.0069 -0.4761
12918SOL    HW140195   5.983   1.851   8.313 -0.7409 -1.8015 -0.2024
12918SOL    HW240196   6.129   1.839   8.353 -0.9475 -0.2326  1.1382
12919SOL     OW40197   2.316   2.292   7.319 -0.0874  0.1619  0.1709
12919SOL    HW140198   2.284   2.279   7.229  1.1278 -1.1971 -0.1020
12919SOL    HW240199   2.318   2.204   7.357  2.1150  0.3188  0.5577
12920SOL     OW40200   3.449   7.346   9.540  0.2703  0.2890 -0.3448
12920SOL    HW140201   3.539   7.358   9.569  0.4649  0.1756 -0.9054
12920SOL    HW240202   3.431   7.253   9.556  0.2803  0.2930 -0.3097
12921SOL     OW40203   5.133   0.561   8.438  0.2944  0.1969 -0.1783
12921SOL    HW140204   5.121   0.595   8.349 -0.5760  1.1573  0.2758
12921SOL    HW240205   5.095   0.473   8.436  2.2842 -0.6881 -1.3023
12922SOL     OW40206   7.467   2.242   7.590 -0.4358  0.2961  0.4364
12922SOL    HW140207   7.532   2.297   7.547  0.5614 -1.3505 -0.2415
12922SOL    HW240208   7.514   2.200   7.662 -1.2507  0.5234  1.1179
12923SOL     OW40209   4.703   1.882   8.298 -0.8973  0.1144  0.1236
12923SOL    HW140210   4.744   1.840   8.223 -0.4503 -0.4629  0.6844
12923SOL    HW240211   4.737   1.972   8.296 -0.3819 -0.0787  0.0127
12924SOL     OW40212   4.472   2.812   8.935  0.6162 -0.3524 -0.2106
12924SOL    HW140213   4.562   2.821   8.904  0.6341 -1.1044 -0.3932
12924SOL    HW240214   4.421   2.789   8.857 -0.1645  2.3130 -0.5894
12925SOL     OW40215   3.066   2.096   9.360  0.2018  0.8309  0.5937
12925SOL    HW140216   3.141   2.090   9.420  0.4617  2.9137  0.5373
12925SOL    HW240217   3.009   2.023   9.386  2.5986 -1.3601  0.0542
12926SOL     OW40218   5.422   1.738   8.493  0.3093 -0.2497 -0.1222
12926SOL    HW140219   5.435   1.833   8.491 -1.5903  0.0644  0.6292
12926SOL    HW240220   5.364   1.723   8.568 -0.7422 -1.8019 -1.1786
12927SOL     OW40221   3.815   0.873   8.824 -0.0163  0.3076  0.3157
12927SOL    HW140222   3.866   0.869   8.904  0.7725 -0.1915 -0.1976
12927SOL    HW240223   3.830   0.962   8.791 -0.0334  0.3872  0.5224
12928SOL     OW40224   7.853   2.747   7.121  0.0756 -0.0410 -0.1915
12928SOL    HW140225   7.925   2.800   7.157 -3.4542  3.1609  3.0169
12928SOL    HW240226   7.874   2.657   7.149  3.0904  0.5777 -0.0843
12929SOL     OW40227   4.536   7.879  10.918  0.1144  0.0017 -0.1878
12929SOL    HW140228   4.527   7.834  10.834  2.6170  0.2495 -0.6735
12929SOL    HW240229   4.462   7.939  10.921 -1.2096 -1.5064 -1.2302
12930SOL     OW40230   4.346   1.941   7.440 -0.3654 -0.1489  0.1243
12930SOL    HW140231   4.393   1.891   7.506 -0.9953  0.0612  0.7422
12930SOL    HW240232   4.358   1.891   7.359  0.4662 -0.3725  0.3706
12931SOL     OW40233   4.673   2.018   8.996  0.4011  0.1648 -0.1525
12931SOL    HW140234   4.717   2.102   8.983  0.1057  0.1455 -1.3757
12931SOL    HW240235   4.660   2.013   9.091  2.0212  0.6745  0.1370
12932SOL     OW40236   4.810   2.414   7.826  0.0396 -0.2984  0.7289
12932SOL    HW140237   4.887   2.453   7.866 -0.3580 -1.3394  2.5987
12932SOL    HW240238   4.747   2.485   7.819  1.1876  0.6135 -1.0142
12933SOL     OW40239   5.469   1.800   9.776 -0.7097 -0.0762 -0.5918
12933SOL    HW140240   5.553   1.792   9.730  0.3063  0.2027  1.1140
12933SOL    HW240241   5.484   1.757   9.860 -1.9941  0.7766  0.1058
12934SOL     OW40242   6.055   7.369   8.263 -0.4810  0.0594  0.2137
12934SOL    HW140243   6.022   7.279   8.264  0.5194 -0.3277  1.2260
12934SOL    HW240244   6.038   7.400   8.175 -1.1927 -0.9923 -0.0434
12935SOL     OW40245   5.753   7.919   7.850 -0.0304 -0.3107 -0.4474
12935SOL    HW140246   5.788   7.887   7.767 -1.2720  3.4002 -2.6556
12935SOL    HW240247   5.659   7.927   7.835 -0.5591 -1.1381  2.0019
12936SOL     OW40248   4.526   2.673   7.706 -0.2796 -0.1224 -0.0247
12936SOL    HW140249   4.529   2.768   7.702 -2.2622  0.1236  2.1395
12936SOL    HW240250   4.565   2.651   7.790 -2.5166 -0.9366  0.8664
12937SOL     OW40251   3.834   1.758   9.788 -0.5030  0.1367 -0.9786
12937SOL    HW140252   3.866   1.668   9.793  0.7174  0.5183 -1.4725
12937SOL    HW240253   3.831   1.778   9.694  1.0120  1.1732 -0.8588
12938SOL     OW40254   4.064   2.473   7.501  0.1602 -0.2561  0.1237
12938SOL    HW140255   4.001   2.407   7.472 -0.3868 -0.3344  1.4044
12938SOL    HW240256   4.029   2.556   7.468  0.4183 -0.5044 -0.8000
12939SOL     OW40257   5.207   2.030   6.865  0.2249  0.2626 -0.9812
12939SOL    HW140258   5.293   2.070   6.851 -0.7122  2.3828 -0.9833
12939SOL    HW240259   5.160   2.045   6.783  0.0220 -1.4199 -1.1985
12940SOL     OW40260   4.882   0.597   8.759  0.0932 -0.2814 -0.9025
12940SOL    HW140261   4.963   0.639   8.789  0.3242  2.0780 -4.3127
12940SOL    HW240262   4.829   0.668   8.724 -2.9175 -1.9625 -0.1218
12941SOL     OW40263   6.693   0.341   8.121 -0.5456 -1.0233 -0.1521
12941SOL    HW140264   6.687   0.434   8.143 -1.8786 -0.9184 -0.8610
12941SOL    HW240265   6.668   0.296   8.201 -1.0435 -0.7424 -0.1490
12942SOL     OW40266   4.482   1.828   9.006  0.7673 -0.4963  0.5664
12942SOL    HW140267   4.538   1.900   8.975  2.0944 -1.0512  1.5948
12942SOL    HW240268   4.541   1.753   9.013 -0.0519 -1.0489  1.8754
12943SOL     OW40269   5.106   7.025   7.923  0.7726 -0.4890  0.1103
12943SOL    HW140270   5.025   7.023   7.974  1.9856 -2.1835  2.1573
12943SOL    HW240271   5.124   6.933   7.903  0.9556  0.0403 -2.5063
12944SOL     OW40272   4.862   7.537   7.061  0.2286  0.0645  0.3314
12944SOL    HW140273   4.855   7.479   7.136  0.8024  0.4455  0.6878
12944SOL    HW240274   4.921   7.607   7.090 -0.8031  1.0637  0.0618
12945SOL     OW40275   6.324   0.537  10.021 -0.0543 -0.8349  0.2123
12945SOL    HW140276   6.391   0.481   9.982  0.0182  0.3402 -1.4665
12945SOL    HW240277   6.361   0.625  10.014 -0.6320 -0.4417  1.7899
12946SOL     OW40278   4.932   2.253   7.146  0.3140 -0.5242 -0.4275
12946SOL    HW140279   4.906   2.342   7.123 -0.8778 -0.5259  0.8108
12946SOL    HW240280   5.023   2.246   7.116  0.6927  1.3632  0.1726
12947SOL     OW40281   4.426   6.596   7.991  0.0949 -0.2190 -0.3229
12947SOL    HW140282   4.518   6.599   8.021  0.1895 -1.0926 -0.5107
12947SOL    HW240283   4.405   6.503   7.988 -0.2352 -0.1090 -2.0308
12948SOL     OW40284   2.864   7.095   9.709 -0.2141  0.7501 -0.2384
12948SOL    HW140285   2.939   7.049   9.746 -0.7589 -0.7115 -0.9012
12948SOL    HW240286   2.902   7.162   9.653  0.6148 -0.1504 -0.7874
12949SOL     OW40287   3.719   1.520   8.302 -0.1917  0.2819  0.1810
12949SOL    HW140288   3.786   1.588   8.289  0.0482  0.0231  0.0634
12949SOL    HW240289   3.642   1.554   8.256  0.3388 -0.1459 -1.0709
12950SOL     OW40290   5.440   1.635   9.151  1.0930  0.2565  0.1202
12950SOL    HW140291   5.484   1.624   9.235 -0.0373  1.3308  0.8910
12950SOL    HW240292   5.461   1.724   9.124 -1.4792  1.2538  1.1087
12951SOL     OW40293   4.949   1.769   7.427  0.3073 -0.2379  0.3070
12951SOL    HW140294   4.855   1.755   7.418  0.2031  0.9006 -0.6575
12951SOL    HW240295   4.957   1.859   7.457  1.0929 -0.3440  0.4446
12952SOL     OW40296   4.688   0.180   8.214 -0.4442 -0.5063  0.2878
12952SOL    HW140297   4.633   0.256   8.236 -1.3432 -1.1010  0.1532
12952SOL    HW240298   4.627   0.117   8.175  0.3064 -1.2604  0.3082
12953SOL     OW40299   4.422   7.721   9.255 -0.0262  0.5398  0.0693
12953SOL    HW140300   4.364   7.777   9.307 -0.3092  0.2397  0.0774
12953SOL    HW240301   4.470   7.783   9.200  0.2658  0.8564  0.6747
12954SOL     OW40302   5.690   1.952   8.621 -0.1489 -0.2511 -0.4238
12954SOL    HW140303   5.642   1.994   8.692  1.3036  0.6293  0.0798
12954SOL    HW240304   5.754   1.896   8.665 -0.8924 -1.6831 -1.0789
12955SOL     OW40305   5.346   0.619   8.590 -0.4783  0.3155 -0.2596
12955SOL    HW140306   5.278   0.613   8.523  0.2069 -0.7209 -0.8902
12955SOL    HW240307   5.327   0.547   8.651 -0.2352  0.3255 -0.1685
12956SOL     OW40308   4.596   7.388   7.969 -0.6764 -0.1594 -0.1820
12956SOL    HW140309   4.533   7.427   7.909 -0.2902 -0.2828 -0.6787
12956SOL    HW240310   4.561   7.300   7.987 -1.5329  0.3825  0.9191
12957SOL     OW40311   4.105   0.986  10.931  0.0351  0.0785  0.3612
12957SOL    HW140312   4.187   0.970  10.885 -1.7349 -1.0990 -2.6929
12957SOL    HW240313   4.047   0.915  10.902 -1.6975  0.0292  3.5043
12958SOL     OW40314   6.089   7.031   8.620 -0.4076  0.0443  0.3849
12958SOL    HW140315   6.148   7.106   8.616 -2.8656  2.0476 -1.0524
12958SOL    HW240316   6.102   6.985   8.537 -1.2624  0.8401 -0.2022
12959SOL     OW40317   2.704   6.287   7.195 -0.0570  0.5638  0.4817
12959SOL    HW140318   2.735   6.378   7.185 -0.3917  0.5448 -1.0430
12959SOL    HW240319   2.702   6.253   7.105  0.0737 -0.9692  1.0359
12960SOL     OW40320   5.224   0.547   6.907  0.2327 -1.0396 -0.7143
12960SOL    HW140321   5.223   0.465   6.858  2.0458 -0.6640 -1.5003
12960SOL    HW240322   5.270   0.526   6.988  0.6790 -0.8235 -0.9064
12961SOL     OW40323   6.176   1.574   8.782 -0.4414  0.1712 -0.2447
12961SOL    HW140324   6.169   1.574   8.686  3.1357  0.2717 -0.6432
12961SOL    HW240325   6.190   1.667   8.804  0.4839 -0.0399  0.1262
12962SOL     OW40326   6.978   1.991   8.438 -0.7159  0.3338  0.2394
12962SOL    HW140327   6.910   2.044   8.479  1.0956  3.7578 -0.8166
12962SOL    HW240328   7.047   1.987   8.504 -0.2648  0.5833 -0.2101
12963SOL     OW40329   4.227   2.010   8.317 -0.3897 -0.2101  0.1514
12963SOL    HW140330   4.168   1.976   8.249  0.0285 -0.0624 -0.2965
12963SOL    HW240331   4.310   1.967   8.299 -0.1150  0.2944  0.1970
12964SOL     OW40332   4.446   2.151   7.621 -0.0777  0.1338 -0.1195
12964SOL    HW140333   4.415   2.073   7.667 -1.5218  0.8293  0.1417
12964SOL    HW240334   4.367   2.187   7.580  0.3565  2.0392  0.6344
12965SOL     OW40335   5.982   0.879   8.267 -0.1435  0.3508 -0.0888
12965SOL    HW140336   5.996   0.962   8.222 -0.4665  0.4603  0.0091
12965SOL    HW240337   5.888   0.861   8.256 -0.0308 -0.1106 -0.2951
12966SOL     OW40338   3.944   2.028   6.371  0.0637 -0.1063 -0.2877
12966SOL    HW140339   3.967   2.028   6.278  1.1359  0.5475 -0.0376
12966SOL    HW240340   3.856   2.066   6.375 -0.3004 -0.8291 -1.0870
12967SOL     OW40341   5.450   2.356   8.644  0.0182  0.5797  0.0261
12967SOL    HW140342   5.380   2.341   8.580 -0.1991  1.6773 -0.0085
12967SOL    HW240343   5.467   2.450   8.640  1.5805  0.3303 -0.0434
12968SOL     OW40344   5.562   7.516   7.993  0.0973 -0.1228  0.4551
12968SOL    HW140345   5.548   7.607   8.018 -0.1539  0.0767 -0.3545
12968SOL    HW240346   5.656   7.503   7.999  0.1105  0.1307  0.7859
12969SOL     OW40347   4.381   0.847   9.409  0.3149  0.3346  0.6184
12969SOL    HW140348   4.346   0.791   9.339  1.5290 -0.3993  0.5735
12969SOL    HW240349   4.326   0.828   9.485  1.4739 -1.9382  0.9703
12970SOL     OW40350   4.618   0.406   9.216  0.2206 -0.6137 -0.0250
12970SOL    HW140351   4.658   0.368   9.137  0.4775  0.6322 -0.5240
12970SOL    HW240352   4.635   0.500   9.208  0.6412 -0.5138  1.7578
12971SOL     OW40353   4.773   6.535   9.203 -0.0384  0.2847 -0.5925
12971SOL    HW140354   4.847   6.484   9.236  1.2122  2.1157 -0.3919
12971SOL    HW240355   4.801   6.626   9.212 -0.9101  0.9885 -3.7432
12972SOL     OW40356   4.949   1.449   7.355 -0.1481  0.0299 -0.0995
12972SOL    HW140357   4.893   1.435   7.279  0.7173 -0.2413 -0.6957
12972SOL    HW240358   4.888   1.470   7.426 -0.9487  0.4980 -0.9105
12973SOL     OW40359   4.981   0.432   9.302  0.1969 -0.1762 -0.5432
12973SOL    HW140360   4.945   0.450   9.215 -0.7480 -1.9762 -0.5791
12973SOL    HW240361   4.971   0.338   9.313  1.0095 -0.1008  1.2244
12974SOL     OW40362   3.496   0.576   8.294 -0.6009  0.1452 -0.5785
12974SOL    HW140363   3.530   0.664   8.283  1.8899 -0.6000  0.4998
12974SOL    HW240364   3.479   0.568   8.388 -1.6453 -0.2614 -0.7859
12975SOL     OW40365   3.679   1.448   8.566 -0.6750  0.0338 -0.3264
12975SOL    HW140366   3.695   1.489   8.481 -2.0635  0.4796 -0.3815
12975SOL    HW240367   3.706   1.514   8.630 -1.5794  0.5069 -0.4208
12976SOL     OW40368   6.081   0.848   8.523  0.0895  0.7076  0.2021
12976SOL    HW140369   6.019   0.839   8.450  2.2252 -1.7809 -1.5152
12976SOL    HW240370   6.165   0.866   8.480  1.4314 -0.8788  2.0154
12977SOL     OW40371   4.057   6.388  10.034  0.2609  0.0977  0.0759
12977SOL    HW140372   4.151   6.390  10.051  0.5338  1.0526 -1.3566
12977SOL    HW240373   4.026   6.475  10.058 -0.1451 -0.0004 -0.0768
12978SOL     OW40374   3.684   2.161   8.122  0.0277 -0.4206 -0.7340
12978SOL    HW140375   3.744   2.176   8.194 -0.4196 -0.1393 -0.4112
12978SOL    HW240376   3.682   2.244   8.074 -0.4968 -0.2485 -0.4330
12979SOL     OW40377   3.887   0.006   9.720 -0.1185  0.1965 -0.3198
12979SOL    HW140378   3.911  -0.004   9.812 -0.1172  2.5257 -0.0098
12979SOL    HW240379   3.899   0.099   9.702 -2.0748  0.1836 -2.1224
12980SOL     OW40380   4.270   7.581   7.959  0.4772  0.0726 -0.5633
12980SOL    HW140381   4.273   7.673   7.985  0.8244  0.3567 -1.5306
12980SOL    HW240382   4.181   7.552   7.981  0.5593  0.4570  0.3074
12981SOL     OW40383   3.872   7.273   6.794  0.1749 -0.3962  0.0349
12981SOL    HW140384   3.938   7.338   6.771 -0.7976  0.2690 -1.0000
12981SOL    HW240385   3.818   7.316   6.861 -0.4757 -0.1034 -0.6576
12982SOL     OW40386   4.546   7.705   9.529  0.1773 -0.0606 -0.1231
12982SOL    HW140387   4.469   7.666   9.488 -0.1854 -0.8853  1.2647
12982SOL    HW240388   4.525   7.798   9.535  1.4024  0.6756 -4.2453
12983SOL     OW40389   3.881   2.950   6.509  0.1648  0.3847 -0.2406
12983SOL    HW140390   3.973   2.973   6.519  1.1778 -3.0112 -0.4119
12983SOL    HW240391   3.856   2.986   6.424  1.2516  1.5297 -0.0987
12984SOL     OW40392   3.658   6.868   8.494 -0.4138 -0.7234  0.3790
12984SOL    HW140393   3.584   6.862   8.434  1.3179 -0.5466 -1.9135
12984SOL    HW240394   3.619   6.882   8.580 -2.9746  1.3415 -0.9912
12985SOL     OW40395   3.783   7.571   9.765  1.0357  0.0798  0.4946
12985SOL    HW140396   3.850   7.607   9.707  0.0833 -0.3798 -0.9380
12985SOL    HW240397   3.747   7.496   9.718 -1.4279  1.0960  0.5746
12986SOL     OW40398   4.114   7.950   9.106 -0.0089 -0.4987  0.0977
12986SOL    HW140399   4.142   8.001   9.183  0.9042 -0.8035 -0.0219
12986SOL    HW240400   4.194   7.936   9.056 -0.2926 -1.8193 -0.0235
12987SOL     OW40401   4.524   0.124  10.185 -0.1914  0.5809  0.6008
12987SOL    HW140402   4.580   0.196  10.214 -0.9247  1.6001 -0.3596
12987SOL    HW240403   4.451   0.125  10.246 -0.7372  1.4018 -0.0306
12988SOL     OW40404   5.697   1.150   9.136 -0.2821  0.0065  0.0101
12988SOL    HW140405   5.781   1.189   9.159 -0.1855  0.6386 -1.3135
12988SOL    HW240406   5.640   1.226   9.119 -0.6451 -0.4153 -0.6909
12989SOL     OW40407   6.667   1.299   8.638  0.9643 -0.4705 -0.1703
12989SOL    HW140408   6.739   1.270   8.696 -0.4422  0.7451  2.3658
12989SOL    HW240409   6.684   1.392   8.624 -1.1189  0.3966  2.2797
12990SOL     OW40410   5.540   1.708   8.818 -0.3054 -0.4576 -0.4056
12990SOL    HW140411   5.455   1.735   8.784  0.1021  2.7656  0.7150
12990SOL    HW240412   5.584   1.665   8.745 -2.7179 -1.8750 -1.1062
12991SOL     OW40413   4.604   7.697  11.127  0.3418 -0.1233 -0.2020
12991SOL    HW140414   4.601   7.765  11.059 -1.1840  2.1019  1.8875
12991SOL    HW240415   4.517   7.659  11.126 -0.1407  0.8415  1.2619
12992SOL     OW40416   4.070   7.272   9.579 -0.5819  0.0838 -0.0492
12992SOL    HW140417   4.066   7.368   9.581 -0.6545  0.0881 -0.3212
12992SOL    HW240418   4.130   7.249   9.649 -2.6084  0.2008  1.8274
12993SOL     OW40419   2.806   0.572  10.951 -0.7445 -0.5416 -0.0138
12993SOL    HW140420   2.844   0.498  10.903  1.9736  0.1546  0.9220
12993SOL    HW240421   2.723   0.537  10.986 -0.5955 -2.4314 -1.3931
12994SOL     OW40422   4.588   1.038  11.849  0.0182 -0.0806  0.0226
12994SOL    HW140423   4.532   1.048  11.926  0.8328  2.1587  0.4058
12994SOL    HW240424   4.576   1.119  11.800  0.8378 -0.7356 -1.3224
12995SOL     OW40425   4.420   2.838   9.674 -0.2437 -0.3268  1.1368
12995SOL    HW140426   4.494   2.787   9.640 -0.5272 -1.1127  1.6684
12995SOL    HW240427   4.460   2.904   9.730  0.3377  1.7358 -1.5004
12996SOL     OW40428   3.410   6.924  11.192 -0.2095  0.1151 -0.0252
12996SOL    HW140429   3.437   6.849  11.139 -1.7555 -1.0334  0.7313
12996SOL    HW240430   3.474   6.926  11.263  0.3490  0.0561 -0.5170
12997SOL     OW40431   6.576   7.955   8.985  0.1024  0.4463  0.3987
12997SOL    HW140432   6.498   7.908   8.955  0.5400  0.5403 -0.9570
12997SOL    HW240433   6.543   8.042   9.011 -0.8668 -0.7908  3.8409
12998SOL     OW40434   4.647   0.965   9.874  0.2781  0.4279 -0.0983
12998SOL    HW140435   4.554   0.972   9.894 -0.0551 -2.0327 -0.4359
12998SOL    HW240436   4.689   0.952   9.960  0.0594 -0.2789 -0.0896
12999SOL     OW40437   5.626   1.619  10.791  0.1877 -0.1073 -0.2000
12999SOL    HW140438   5.587   1.705  10.806  0.2118  0.2488 -1.9653
12999SOL    HW240439   5.668   1.597  10.875 -1.8946  0.4596  1.0818
13000SOL     OW40440   2.420   1.719  10.195 -0.3430 -0.1751 -0.5311
13000SOL    HW140441   2.401   1.807  10.228 -0.9404  0.9387 -3.5596
13000SOL    HW240442   2.512   1.723  10.170  0.3879 -1.3231  1.6384
13001SOL     OW40443   5.146   1.164  10.780 -0.2264 -0.1154 -0.2507
13001SOL    HW140444   5.097   1.238  10.743 -0.2290  0.0672  0.1109
13001SOL    HW240445   5.157   1.104  10.707  2.6485  1.6723 -1.4249
13002SOL     OW40446   4.972   2.042  10.478 -0.2272 -0.2988  0.1209
13002SOL    HW140447   4.973   2.090  10.395 -0.7856 -0.7413 -0.1522
13002SOL    HW240448   4.957   1.951  10.452  1.3468 -0.7172  0.5909
13003SOL     OW40449   4.864   5.938   8.903  0.7972  0.0387  0.0914
13003SOL    HW140450   4.816   5.898   8.975 -0.6237  2.0009  0.3165
13003SOL    HW240451   4.955   5.937   8.931  0.7294 -2.3366  0.3596
13004SOL     OW40452   5.928   1.605   8.524 -0.3041  0.2071 -0.3702
13004SOL    HW140453   5.925   1.531   8.584  0.8566 -0.1800 -0.7720
13004SOL    HW240454   6.021   1.623   8.511 -0.5322  2.8534  1.0484
13005SOL     OW40455   2.786   0.646   9.937  0.0048  0.2965 -0.0745
13005SOL    HW140456   2.773   0.620   9.845 -2.4325 -0.7383  0.4808
13005SOL    HW240457   2.881   0.646   9.948  0.3323 -1.8006 -2.0117
13006SOL     OW40458   5.460   2.468   9.979  0.4255  0.2515 -0.4766
13006SOL    HW140459   5.482   2.560   9.992 -0.3880  0.5221 -0.9524
13006SOL    HW240460   5.370   2.469   9.948  0.1964 -0.7427  0.0992
13007SOL     OW40461   2.911   1.811   9.690  0.4668 -0.5038  0.5137
13007SOL    HW140462   2.956   1.726   9.695 -1.4682 -1.6975 -1.0152
13007SOL    HW240463   2.924   1.840   9.600  1.8476  1.3327  1.2449
13008SOL     OW40464   5.685   1.091   8.511 -0.1291  0.0177  0.0040
13008SOL    HW140465   5.763   1.094   8.455 -1.4184 -0.5059 -1.9043
13008SOL    HW240466   5.698   1.014   8.566  0.2327 -0.6699 -1.0175
13009SOL     OW40467   6.434   0.520   9.606  0.2876 -0.6094 -0.2681
13009SOL    HW140468   6.375   0.595   9.592 -0.2153 -0.9374  0.0638
13009SOL    HW240469   6.519   0.550   9.573  0.3953  0.5460  0.9901
13010SOL     OW40470   4.206   2.839   9.849 -0.7408 -0.7810  0.1804
13010SOL    HW140471   4.231   2.796   9.931 -1.4422 -0.6584  0.4603
13010SOL    HW240472   4.287   2.839   9.797  0.3259  1.0425  1.6802
13011SOL     OW40473   5.922   0.999  10.977  0.4930 -0.1901 -0.1475
13011SOL    HW140474   5.827   1.002  10.967  0.4536  0.5373  0.4162
13011SOL    HW240475   5.954   0.984  10.888 -0.2142 -2.7212 -0.0687
13012SOL     OW40476   5.548   7.856  10.929  0.5828 -0.1660 -0.1021
13012SOL    HW140477   5.480   7.858  10.860  1.4189 -0.4087 -0.9564
13012SOL    HW240478   5.512   7.798  10.995 -0.0694 -0.2647 -0.5243
13013SOL     OW40479   2.796   0.699   0.400  0.7177  0.4927  0.2300
13013SOL    HW140480   2.769   0.725   0.488  1.0252 -0.0429  0.4922
13013SOL    HW240481   2.858   0.627   0.415 -1.4136 -1.6097 -0.4716
13014SOL     OW40482   2.257   1.021   0.001 -0.2175 -0.0180  0.5433
13014SOL    HW140483   2.334   0.983  -0.043 -0.2394  0.1155  0.3918
13014SOL    HW240484   2.200   1.049  -0.070 -1.6755 -2.6039  0.5886
13015SOL     OW40485   6.775   7.428   8.434 -0.0713 -1.3848  0.6087
13015SOL    HW140486   6.746   7.465   8.350  1.6869 -0.1762  0.4918
13015SOL    HW240487   6.722   7.474   8.499  0.3749 -0.3968  0.3011
13016SOL     OW40488   4.516   2.097  10.242 -0.1370 -0.6322  0.7406
13016SOL    HW140489   4.455   2.156  10.285 -0.1013  0.2925 -0.4373
13016SOL    HW240490   4.467   2.015  10.232 -1.7761  0.4801 -1.4218
13017SOL     OW40491   1.496   0.644  11.220 -0.3885 -0.3964 -0.0603
13017SOL    HW140492   1.541   0.716  11.175  0.9257 -1.1887 -0.0606
13017SOL    HW240493   1.411   0.638  11.176 -0.3491  0.8608 -0.3470
13018SOL     OW40494   5.585   2.882   9.024  0.7276 -0.0388  0.2121
13018SOL    HW140495   5.545   2.888   8.937  1.9494  0.3532 -0.3377
13018SOL    HW240496   5.512   2.861   9.082 -0.0466 -0.6808 -0.9564
13019SOL     OW40497   5.934   1.114   9.291 -0.6803 -0.0210  0.2125
13019SOL    HW140498   5.908   1.038   9.239 -0.2404 -0.3162  0.4129
13019SOL    HW240499   5.912   1.091   9.381  1.4814 -0.8745  0.5929
13020SOL     OW40500   4.653   7.642   8.745 -0.4386 -0.1834  0.3413
13020SOL    HW140501   4.629   7.692   8.666 -2.4120 -0.7432  0.5178
13020SOL    HW240502   4.739   7.606   8.726 -0.7228 -0.0214 -1.4351
13021SOL     OW40503   7.173   0.684  10.611  0.6426  0.1706  0.3077
13021SOL    HW140504   7.267   0.696  10.600  0.4847  0.0567 -1.4667
13021SOL    HW240505   7.134   0.735  10.540 -0.5425 -1.2388 -0.1087
13022SOL     OW40506   4.468   7.260   8.559  0.2843 -0.4274 -0.1772
13022SOL    HW140507   4.564   7.263   8.563  0.4090 -2.0863 -1.1643
13022SOL    HW240508   4.442   7.227   8.645  0.6409 -0.6526 -0.1543
13023SOL     OW40509   4.664   3.760  11.055  0.3128 -0.6261  0.9358
13023SOL    HW140510   4.751   3.720  11.056 -0.0902 -1.5188  0.8818
13023SOL    HW240511   4.680   3.851  11.029  1.1417 -0.9946  0.1027
13024SOL     OW40512   6.164   0.899  10.526  0.6747  0.0785 -0.4357
13024SOL    HW140513   6.188   0.905  10.619 -1.0174  1.1025 -0.0188
13024SOL    HW240514   6.202   0.977  10.486 -0.7494  1.0143 -0.0396
13025SOL     OW40515   4.800   7.180  10.218  0.0944 -0.0437 -0.1624
13025SOL    HW140516   4.798   7.092  10.182  0.4868  0.4309 -1.4008
13025SOL    HW240517   4.888   7.191  10.252  0.4552  0.2970 -1.1700
13026SOL     OW40518   3.671   0.056   0.420 -0.1366  0.4488  0.7883
13026SOL    HW140519   3.713   0.094   0.343 -0.1536  1.2751  1.1808
13026SOL    HW240520   3.603   0.119   0.445 -0.7185 -0.2273  0.9645
13027SOL     OW40521   4.522   7.776  10.668  0.2901 -0.1029  0.0850
13027SOL    HW140522   4.570   7.704  10.710  1.4515  0.8609  0.4878
13027SOL    HW240523   4.521   7.753  10.575 -0.3563 -1.1809  0.3435
13028SOL     OW40524   3.566   2.025   0.502  0.3383  0.1048  0.2046
13028SOL    HW140525   3.551   1.932   0.483 -1.3851  0.0568  1.4911
13028SOL    HW240526   3.511   2.072   0.440  1.9349  0.3426 -1.0794
13029SOL     OW40527   4.726   6.608   9.568 -0.4235  0.1112  0.6524
13029SOL    HW140528   4.647   6.556   9.550 -0.5314  0.4245  0.1968
13029SOL    HW240529   4.710   6.691   9.524  0.0263  0.2941  0.8311
13030SOL     OW40530   5.839   7.372  10.435  0.2734  0.0483 -0.5955
13030SOL    HW140531   5.899   7.394  10.364  2.9332 -2.3650  0.6782
13030SOL    HW240532   5.848   7.277  10.444 -1.7376 -0.0145  1.4623
13031SOL     OW40533   4.518   7.622  10.121  0.3283 -0.0672 -0.2862
13031SOL    HW140534   4.501   7.592  10.031  1.3686  0.2983 -0.6165
13031SOL    HW240535   4.578   7.557  10.157  1.1432  0.6098 -0.3903
13032SOL     OW40536   2.770   7.049  11.760  0.0199  0.0384 -0.3518
13032SOL    HW140537   2.769   7.011  11.848 -0.4527  2.0264  0.5344
13032SOL    HW240538   2.679   7.070  11.742  0.2911  0.8922 -0.7603
13033SOL     OW40539   5.203   1.669   9.040  0.5020  0.3447  0.2347
13033SOL    HW140540   5.222   1.719   8.960  0.5224  1.3151  0.8316
13033SOL    HW240541   5.289   1.649   9.076  0.4832  0.6819  0.4743
13034SOL     OW40542   3.089   2.479  11.843  0.0312  0.5988 -0.0538
13034SOL    HW140543   3.009   2.519  11.877 -0.0108  0.8137 -0.3953
13034SOL    HW240544   3.060   2.430  11.766  0.2972  1.0662 -0.4589
13035SOL     OW40545   6.203   1.786  10.987 -0.0708 -0.2063 -0.3485
13035SOL    HW140546   6.251   1.721  11.038 -0.6406  0.7168  1.4640
13035SOL    HW240547   6.246   1.869  11.007 -2.6382  0.7704  1.8996
13036SOL     OW40548   5.248   1.073  10.204  0.2063 -0.0013  0.0594
13036SOL    HW140549   5.227   1.008  10.137  1.3836 -1.7807  1.3308
13036SOL    HW240550   5.326   1.038  10.248  0.2907  1.7987  1.4521
13037SOL     OW40551   5.858   7.665   7.957  0.1164  0.0475 -0.1628
13037SOL    HW140552   5.796   7.726   7.918  1.7283  2.5790  0.9860
13037SOL    HW240553   5.940   7.680   7.911  0.4309 -1.7832 -0.2996
13038SOL     OW40554   4.378   2.227   8.003  0.5506 -0.5309 -0.1331
13038SOL    HW140555   4.433   2.302   8.029  1.4222 -1.0065 -0.5661
13038SOL    HW240556   4.436   2.151   8.012 -0.4851 -1.2330  0.8080
13039SOL     OW40557   3.736   1.323  11.159 -0.1432  0.3972 -0.3992
13039SOL    HW140558   3.662   1.274  11.195 -0.5132  1.2516  0.0311
13039SOL    HW240559   3.713   1.337  11.067 -0.2387  0.1558 -0.4133
13040SOL     OW40560   3.542   0.305   9.158  0.0983 -0.4661 -0.2553
13040SOL    HW140561   3.486   0.376   9.125 -0.2527 -0.8895 -0.5881
13040SOL    HW240562   3.488   0.261   9.224 -0.3977 -1.5456 -1.3386
13041SOL     OW40563   3.564   7.831  10.372  0.6580  0.5976 -0.7094
13041SOL    HW140564   3.517   7.856  10.452 -0.1226 -1.6478 -0.3985
13041SOL    HW240565   3.506   7.858  10.301 -0.5860 -1.0048 -0.3570
13042SOL     OW40566   7.052   2.021   7.388  0.1669  0.1208 -0.6010
13042SOL    HW140567   7.117   2.083   7.423  0.4177  0.9752 -2.4615
13042SOL    HW240568   6.968   2.065   7.400  0.2674  0.4816 -1.1784
13043SOL     OW40569   3.800   2.478  10.365 -0.2553  0.1005  0.1773
13043SOL    HW140570   3.844   2.544  10.312 -3.0146  2.0614  0.0873
13043SOL    HW240571   3.770   2.526  10.443 -0.4951 -1.5730  1.1731
13044SOL     OW40572   5.671   7.989   8.096 -0.1454  0.5552 -0.6979
13044SOL    HW140573   5.676   8.082   8.118 -2.8313  0.6778 -0.2674
13044SOL    HW240574   5.703   7.985   8.006  1.2308  1.6598 -0.3016
13045SOL     OW40575   4.361   1.141  11.168 -0.2447 -0.0873 -0.0322
13045SOL    HW140576   4.287   1.081  11.165 -0.6314  0.3602  0.4015
13045SOL    HW240577   4.356   1.188  11.084 -1.7150  1.4037  0.8334
13046SOL     OW40578   5.216   1.029   8.402 -0.1651 -0.0299 -0.0136
13046SOL    HW140579   5.294   1.071   8.439 -0.9987  1.7289 -0.1522
13046SOL    HW240580   5.185   0.971   8.472 -0.0586  1.0383  0.9381
13047SOL     OW40581   3.091   7.032   9.867 -0.1074  0.2622  0.1969
13047SOL    HW140582   3.039   7.061   9.942  0.5002 -1.1189  1.2190
13047SOL    HW240583   3.170   6.995   9.907 -0.4438 -1.9288 -1.0219
13048SOL     OW40584   5.437   0.171  10.577 -0.5701 -0.3744  0.1086
13048SOL    HW140585   5.381   0.210  10.645 -0.4941 -0.9627  0.5189
13048SOL    HW240586   5.503   0.238  10.559  0.6517 -0.9354  2.1034
13049SOL     OW40587   3.645   5.937   8.478  0.3663 -0.5899  0.2207
13049SOL    HW140588   3.672   5.959   8.388  1.7928 -2.8494  0.0175
13049SOL    HW240589   3.717   5.967   8.533 -0.8377  1.4774  0.7684
13050SOL     OW40590   3.777   7.822   9.443 -0.4479  0.2179 -0.2167
13050SOL    HW140591   3.780   7.859   9.355 -2.0167  0.2476 -0.2829
13050SOL    HW240592   3.856   7.767   9.448 -0.5082 -0.0730 -1.7695
13051SOL     OW40593   3.893   1.855  11.253 -0.5167  0.1832  0.0761
13051SOL    HW140594   3.963   1.894  11.202 -1.3887  2.2417  0.3512
13051SOL    HW240595   3.910   1.761  11.250  1.2173  0.4980 -1.3350
13052SOL     OW40596   3.771   0.228  12.206 -0.6817 -0.9464  0.3170
13052SOL    HW140597   3.746   0.180  12.127  2.2014 -1.5241 -0.3715
13052SOL    HW240598   3.845   0.178  12.241  1.0916  1.8172  0.7631
13053SOL     OW40599   3.251   1.823  11.347 -0.1629  0.1233 -0.1239
13053SOL    HW140600   3.331   1.845  11.394 -0.5834  0.5817  0.3787
13053SOL    HW240601   3.269   1.847  11.256  0.4207 -0.1783 -0.0936
13054SOL     OW40602   5.849   0.246  10.716  0.6500  0.5323 -0.8746
13054SOL    HW140603   5.785   0.295  10.664 -0.5358  1.2056  1.0980
13054SOL    HW240604   5.927   0.301  10.713 -0.0152  1.5506 -0.3833
13055SOL     OW40605   3.380   7.622   8.203 -0.0067  0.2290 -0.8737
13055SOL    HW140606   3.337   7.704   8.228  0.7180  0.3501  0.0281
13055SOL    HW240607   3.464   7.624   8.248  0.3890 -0.6219 -1.5384
13056SOL     OW40608   6.410   2.908   7.896 -0.5671 -0.1119  0.4577
13056SOL    HW140609   6.395   2.814   7.884 -1.3422 -0.3489  2.8239
13056SOL    HW240610   6.420   2.919   7.990  0.4362  2.0755  0.1516
13057SOL     OW40611   3.975   7.518  10.914 -0.7755  0.1581  0.1744
13057SOL    HW140612   3.931   7.452  10.969 -0.1729 -0.3716  0.0429
13057SOL    HW240613   4.034   7.467  10.860  0.8618  0.9322  1.1621
13058SOL     OW40614   3.106   6.852  10.128 -0.8323  0.7465 -0.6351
13058SOL    HW140615   3.013   6.836  10.139 -0.2443 -1.3624  2.5852
13058SOL    HW240616   3.122   6.934  10.175 -0.8991  0.4964 -0.1719
13059SOL     OW40617   6.598   1.023   9.266  0.2808 -0.1206  0.1299
13059SOL    HW140618   6.680   0.976   9.254  0.6350 -0.2973  2.7014
13059SOL    HW240619   6.536   0.955   9.295 -0.9857 -0.0898 -2.2303
13060SOL     OW40620   7.047   1.022   8.716  0.1277 -0.0492  0.2406
13060SOL    HW140621   7.013   1.005   8.628 -0.6862 -1.2762  0.7517
13060SOL    HW240622   7.093   0.941   8.739 -0.0340  0.1009  1.1041
13061SOL     OW40623   5.232   0.725  11.218  0.4381 -0.1924  0.1671
13061SOL    HW140624   5.152   0.693  11.259  0.3959 -0.4107 -0.0866
13061SOL    HW240625   5.290   0.649  11.214 -0.1265 -0.5754 -1.5869
13062SOL     OW40626   5.626   0.740   9.954  0.2122 -0.2880 -0.1257
13062SOL    HW140627   5.602   0.742  10.047 -0.6395  0.3149 -0.3467
13062SOL    HW240628   5.571   0.671   9.916  0.9000 -0.8686 -0.1133
13063SOL     OW40629   4.368   0.471   7.636  0.1632  0.3541 -0.0893
13063SOL    HW140630   4.303   0.421   7.587 -0.3470  0.1284  0.7923
13063SOL    HW240631   4.381   0.550   7.585 -1.5113  0.8340  0.1705
13064SOL     OW40632   5.491   7.618  10.157 -0.5306  0.1139 -0.4808
13064SOL    HW140633   5.441   7.650  10.082 -0.6640  0.7020 -0.1498
13064SOL    HW240634   5.517   7.530  10.133 -0.9285  0.1463 -1.0474
13065SOL     OW40635   3.492   0.062   8.612 -0.1113  0.1652  0.5284
13065SOL    HW140636   3.485   0.156   8.632 -2.5550  0.3645 -0.9089
13065SOL    HW240637   3.567   0.033   8.663  0.2503  2.7371  1.6382
13066SOL     OW40638   3.385   7.370   7.726 -0.1282 -0.5482  0.3464
13066SOL    HW140639   3.377   7.453   7.774  2.5729 -0.2736  0.4803
13066SOL    HW240640   3.423   7.309   7.789  0.7705 -1.0070 -0.6141
13067SOL     OW40641   5.841   0.431   9.834  0.5984  0.8851 -0.0916
13067SOL    HW140642   5.915   0.424   9.894  0.1082 -0.3460  0.3923
13067SOL    HW240643   5.837   0.524   9.812  1.9701  1.0533  0.2716
13068SOL     OW40644   6.043   1.641   9.915 -0.4686 -0.5712 -0.0798
13068SOL    HW140645   6.005   1.562   9.954 -2.1621 -0.0005 -0.4909
13068SOL    HW240646   5.969   1.686   9.875  0.3055  1.6707  0.8551
13069SOL     OW40647   6.997   1.274   9.521  0.0104 -0.4308 -0.1434
13069SOL    HW140648   6.912   1.281   9.565 -0.4783  1.6205 -1.2743
13069SOL    HW240649   6.983   1.211   9.450 -0.3502 -0.6296  0.1010
13070SOL     OW40650   6.268   2.462   8.712  0.0424  0.3830 -0.0221
13070SOL    HW140651   6.295   2.371   8.722 -0.2203  0.3952  0.9874
13070SOL    HW240652   6.336   2.512   8.757 -0.7830  0.5292  1.1042
13071SOL     OW40653   5.440   0.144   8.328 -0.1713 -0.1874  0.1463
13071SOL    HW140654   5.362   0.183   8.290 -0.0340 -0.9034 -0.9134
13071SOL    HW240655   5.474   0.210   8.389 -0.9899  0.5534 -0.1980
13072SOL     OW40656   6.378   1.238   9.344  0.1301  0.1015  0.5542
13072SOL    HW140657   6.329   1.203   9.418  0.3584 -1.1819  0.1234
13072SOL    HW240658   6.383   1.165   9.282 -0.7350  1.3399 -1.0807
13073SOL     OW40659   6.153   2.486  10.279 -0.3354 -0.3021  0.0177
13073SOL    HW140660   6.059   2.503  10.284 -0.3068 -0.3314  0.8703
13073SOL    HW240661   6.173   2.487  10.186 -1.2531 -0.6838 -0.1917
13074SOL     OW40662   4.039   0.691   8.999  0.1637  0.0776  0.1537
13074SOL    HW140663   4.075   0.686   8.910 -0.3650  1.2609 -0.1448
13074SOL    HW240664   4.013   0.601   9.018 -2.6928  0.2490 -2.1949
13075SOL     OW40665   5.426   1.971   0.169 -0.3945 -0.4802 -0.2765
13075SOL    HW140666   5.416   1.877   0.185  0.9864 -0.5061  0.6677
13075SOL    HW240667   5.429   2.009   0.257  1.1437  0.1796 -0.5848
13076SOL     OW40668   5.261   2.310  10.408 -0.0651 -0.6838 -0.2522
13076SOL    HW140669   5.247   2.387  10.464 -1.0159  0.5324 -2.0792
13076SOL    HW240670   5.349   2.321  10.372  1.2680 -2.3389  2.1634
13077SOL     OW40671   4.731   0.421  11.341 -0.3926  0.0520  0.1586
13077SOL    HW140672   4.640   0.409  11.368  0.1468 -1.5362  1.4150
13077SOL    HW240673   4.767   0.333  11.337  0.9190  0.5990 -1.0462
13078SOL     OW40674   5.615   2.226   9.981  0.4184 -0.0041  0.4526
13078SOL    HW140675   5.637   2.203   9.890 -0.3365  0.1033  0.2365
13078SOL    HW240676   5.581   2.315   9.975 -0.1539 -0.1964  0.7542
13079SOL     OW40677   6.710   1.049   9.700 -0.0639 -0.1082  0.4206
13079SOL    HW140678   6.675   1.098   9.774 -0.4471 -1.9766  1.5304
13079SOL    HW240679   6.805   1.047   9.715  0.3567  2.7237 -1.2106
13080SOL     OW40680   2.816   6.721   8.888 -0.3935 -0.1441 -0.8382
13080SOL    HW140681   2.826   6.753   8.978 -0.2567  0.4668 -1.0590
13080SOL    HW240682   2.729   6.750   8.862  0.5099  1.9732 -1.7552
13081SOL     OW40683   2.848   1.926  12.217 -0.0301 -0.6738  0.5254
13081SOL    HW140684   2.852   1.840  12.259 -0.5559 -0.2745  1.4380
13081SOL    HW240685   2.790   1.977  12.274 -1.4115 -0.3294 -1.1004
13082SOL     OW40686   3.465   7.217   9.929  0.5141 -0.2944 -0.7817
13082SOL    HW140687   3.393   7.175   9.976  0.5922  0.0335 -0.3615
13082SOL    HW240688   3.544   7.172   9.960  0.8158  1.4577  1.2175
13083SOL     OW40689   3.777   2.506  12.030  0.3257  0.0978  0.3415
13083SOL    HW140690   3.763   2.467  11.944  0.4151  0.6921  0.0546
13083SOL    HW240691   3.732   2.591  12.026  0.1445  0.0390  0.9530
13084SOL     OW40692   4.869   7.770  10.638  0.6424 -0.9104 -0.4045
13084SOL    HW140693   4.835   7.721  10.713  1.1596  2.2291  2.0811
13084SOL    HW240694   4.964   7.759  10.644  0.6955 -0.5105 -0.5091
13085SOL     OW40695   3.674   0.417  10.163  0.1971 -0.5138 -0.0238
13085SOL    HW140696   3.625   0.407  10.245  0.7144  0.7511  0.4680
13085SOL    HW240697   3.747   0.475  10.186 -0.3670  0.9185 -1.6638
13086SOL     OW40698   3.151   2.140  10.292 -0.1704  0.0283 -0.0938
13086SOL    HW140699   3.169   2.065  10.349  0.9916  0.5006  0.1977
13086SOL    HW240700   3.226   2.142  10.231 -0.9096  0.1074 -1.0178
13087SOL     OW40701   5.292   0.959   9.594 -0.4563  0.5603 -0.1778
13087SOL    HW140702   5.230   0.945   9.523  0.6783  0.1002 -1.1039
13087SOL    HW240703   5.369   0.906   9.570  0.3793  1.2785  0.8244
13088SOL     OW40704   4.470   2.130  10.569  0.0234 -0.4770  0.4499
13088SOL    HW140705   4.429   2.184  10.502 -1.5004 -0.8173  1.0673
13088SOL    HW240706   4.421   2.048  10.567  1.4586 -1.3711  0.4130
13089SOL     OW40707   4.055   1.276  10.847 -0.2581  0.0188  0.4500
13089SOL    HW140708   3.969   1.252  10.812  0.3212  0.8157 -1.6788
13089SOL    HW240709   4.102   1.194  10.855 -0.5177 -0.2221 -0.4067
13090SOL     OW40710   6.452   2.067   7.789  0.2529 -0.8871  0.3688
13090SOL    HW140711   6.371   2.016   7.779  0.4763 -1.1925  0.0389
13090SOL    HW240712   6.490   2.036   7.871 -0.2399 -0.3420  0.8050
13091SOL     OW40713   2.018   2.339  12.375  0.2868  0.1732 -0.7899
13091SOL    HW140714   2.054   2.424  12.401 -0.4533  0.1849  0.2999
13091SOL    HW240715   2.064   2.276  12.429 -2.3352  0.3298  1.8851
13092SOL     OW40716   5.050   1.196  11.028  0.0298 -0.0318 -0.3327
13092SOL    HW140717   4.999   1.116  11.039  0.4404  0.0334  2.7566
13092SOL    HW240718   5.077   1.194  10.936 -1.8556 -2.2495 -0.9355
13093SOL     OW40719   6.410   1.282  11.984  0.0223 -0.5712 -0.5915
13093SOL    HW140720   6.456   1.198  11.990 -2.4015 -1.8859  1.8349
13093SOL    HW240721   6.329   1.269  12.034 -1.1649  2.7829 -1.3662
13094SOL     OW40722   4.712   0.307  11.829 -0.4951 -0.4001 -0.0739
13094SOL    HW140723   4.689   0.316  11.736  1.1035 -0.8005 -0.5276
13094SOL    HW240724   4.644   0.357  11.874  1.0201  3.5742 -1.7190
13095SOL     OW40725   3.869   5.899  11.095  0.0123 -0.0222 -0.0956
13095SOL    HW140726   3.853   5.993  11.101 -0.6407 -0.1509  0.3684
13095SOL    HW240727   3.864   5.868  11.185  1.1953 -0.3619 -0.1386
13096SOL     OW40728   6.398   1.638  10.704  0.3583 -0.1712 -0.4325
13096SOL    HW140729   6.476   1.676  10.665  0.7409 -0.4938  0.0109
13096SOL    HW240730   6.429   1.593  10.782 -0.5055  1.3522  0.8576
13097SOL     OW40731   4.757   1.256  10.799  0.3865 -0.1081  0.5896
13097SOL    HW140732   4.762   1.230  10.891 -1.1639  1.2137  1.0856
13097SOL    HW240733   4.699   1.192  10.759 -0.1631  0.1961  0.8883
13098SOL     OW40734   4.989   1.647   9.644 -0.0252  0.3676  0.2254
13098SOL    HW140735   5.019   1.734   9.617  2.0319  0.4840  2.5310
13098SOL    HW240736   4.968   1.602   9.563 -0.3141  2.7196 -1.0775
13099SOL     OW40737   3.358   6.955  10.674  0.3020  0.0962  0.0014
13099SOL    HW140738   3.263   6.966  10.677  0.1107 -1.5373  0.8469
13099SOL    HW240739   3.387   6.971  10.764  0.5077 -1.7472  0.3022
13100SOL     OW40740   4.679   1.268  11.610 -0.2836  0.3335 -0.9189
13100SOL    HW140741   4.606   1.270  11.672 -0.8866 -0.6503 -1.5612
13100SOL    HW240742   4.668   1.185  11.563  0.5013  0.7814 -1.9332
13101SOL     OW40743   4.536   1.881  11.897  0.1977 -0.3993  0.2251
13101SOL    HW140744   4.564   1.798  11.936  1.0423  0.0515  0.6110
13101SOL    HW240745   4.588   1.887  11.816 -1.4446 -1.2664 -0.9556
13102SOL     OW40746   6.450   0.128   9.661  0.7470 -0.4433  0.1255
13102SOL    HW140747   6.381   0.158   9.602 -1.4571 -1.4626  2.0194
13102SOL    HW240748   6.502   0.067   9.608  0.8974  1.1165 -1.6459
13103SOL     OW40749   3.326   7.601  11.211 -0.0840 -0.1507  0.3043
13103SOL    HW140750   3.324   7.696  11.215  1.6248 -0.1304  2.2294
13103SOL    HW240751   3.239   7.574  11.239 -0.8294  0.8095 -0.9700
13104SOL     OW40752   6.823   7.880   8.911  0.0942  0.0558  0.6287
13104SOL    HW140753   6.838   7.856   8.819  0.2266 -0.6530  0.8332
13104SOL    HW240754   6.730   7.901   8.916 -0.1704 -1.0445  0.5780
13105SOL     OW40755   6.407   0.833   9.358  0.2238 -0.1612  0.0280
13105SOL    HW140756   6.338   0.874   9.410  0.2827  0.4489 -0.3575
13105SOL    HW240757   6.363   0.804   9.278  0.0417 -1.5104  0.5980
13106SOL     OW40758   6.415   1.257  11.588 -0.1013 -0.5110  0.2343
13106SOL    HW140759   6.471   1.318  11.635 -1.1783  1.6905 -1.1846
13106SOL    HW240760   6.327   1.274  11.620 -0.6409 -0.0669 -1.3722
13107SOL     OW40761   5.255   1.764  10.949 -0.2331 -0.1930 -0.1324
13107SOL    HW140762   5.226   1.673  10.942 -1.6659 -0.0404  2.4091
13107SOL    HW240763   5.176   1.812  10.971  1.0058  1.1401  1.7016
13108SOL     OW40764   2.274   0.752  11.903  0.2646  0.7530  0.0956
13108SOL    HW140765   2.245   0.782  11.817  2.1405  2.0376 -0.1436
13108SOL    HW240766   2.198   0.706  11.939 -0.9290  1.1439 -1.7740
13109SOL     OW40767   4.312   7.898   9.438  0.2938 -0.6240 -0.0805
13109SOL    HW140768   4.285   7.983   9.404  1.2071 -0.7550 -1.1900
13109SOL    HW240769   4.248   7.878   9.506 -1.4836 -0.2678 -1.5733
13110SOL     OW40770   4.405   2.392   8.801 -0.2012  0.1286  0.2339
13110SOL    HW140771   4.461   2.405   8.725 -0.9385  2.7400  0.0328
13110SOL    HW240772   4.329   2.346   8.767  0.8837 -1.6855  0.1209
13111SOL     OW40773   4.411   6.900  10.450 -0.4740 -0.4929  0.3898
13111SOL    HW140774   4.445   6.826  10.400 -0.7841  0.6512 -1.6143
13111SOL    HW240775   4.489   6.940  10.489  0.2340  0.4411 -1.8332
13112SOL     OW40776   4.896   1.236   9.829 -0.4489 -0.1260  0.0701
13112SOL    HW140777   4.962   1.198   9.772  0.6725  0.1528  1.1290
13112SOL    HW240778   4.813   1.218   9.786  0.2434 -1.4224 -0.7751
13113SOL     OW40779   5.915   7.248  11.157 -0.7325  0.0339  0.6968
13113SOL    HW140780   5.852   7.283  11.095 -0.5721 -0.2983  0.3434
13113SOL    HW240781   5.879   7.162  11.181  0.9953 -1.4907 -1.7267
13114SOL     OW40782   3.535   1.047  11.801 -0.3607 -0.3303  0.2421
13114SOL    HW140783   3.607   1.095  11.761  0.2020 -0.8303  0.6416
13114SOL    HW240784   3.538   1.072  11.893 -1.1047  0.1412  0.1465
13115SOL     OW40785   4.796   7.497  11.038  0.4649 -0.3693 -0.0828
13115SOL    HW140786   4.773   7.409  11.069 -0.3536 -0.2163 -0.2235
13115SOL    HW240787   4.732   7.554  11.081  1.3857  0.2345  0.4980
13116SOL     OW40788   3.850   2.310   7.477  0.1822 -0.3039  0.4262
13116SOL    HW140789   3.791   2.287   7.548 -0.0964 -2.2229 -0.3599
13116SOL    HW240790   3.844   2.237   7.416  1.3075  0.7282 -1.0091
13117SOL     OW40791   3.315   1.356   9.738 -0.9920  0.2256 -0.1349
13117SOL    HW140792   3.398   1.353   9.690 -1.9645  1.3421 -2.0592
13117SOL    HW240793   3.289   1.265   9.747  0.5562 -0.1596  0.7500
13118SOL     OW40794   5.171   0.980  11.533  0.1043 -0.8919  0.5586
13118SOL    HW140795   5.155   1.031  11.613  1.1158 -0.5716  0.5708
13118SOL    HW240796   5.095   0.922  11.526 -2.0822  1.8538 -0.4576
13119SOL     OW40797   4.339   0.717  12.063 -0.1464 -0.0917  0.0048
13119SOL    HW140798   4.314   0.631  12.096 -1.1903  0.5729  0.9991
13119SOL    HW240799   4.290   0.779  12.117  1.3780  1.1686  0.0044
13120SOL     OW40800   5.453   1.480   9.881  0.0818  0.0178 -0.4626
13120SOL    HW140801   5.499   1.499   9.799  0.4219 -0.4568 -0.3884
13120SOL    HW240802   5.463   1.559   9.934  0.4462  0.0769 -0.6163
13121SOL     OW40803   4.049   0.838  10.119 -0.1817 -0.4559 -0.4136
13121SOL    HW140804   4.058   0.753  10.161  2.1534 -0.1915 -0.2446
13121SOL    HW240805   3.998   0.891  10.180 -0.6965 -1.3825 -0.0238
13122SOL     OW40806   5.449   7.739   9.728 -0.0100 -0.2588 -0.0662
13122SOL    HW140807   5.461   7.820   9.778  1.3671 -0.3406 -0.2231
13122SOL    HW240808   5.422   7.768   9.641  0.7948  0.0667 -0.2185
13123SOL     OW40809   5.793   0.593   8.627  0.4012  0.1518 -0.6055
13123SOL    HW140810   5.785   0.547   8.543  0.5065 -0.7801 -0.1229
13123SOL    HW240811   5.810   0.523   8.691  0.4868  0.8627  0.1674
13124SOL     OW40812   6.464   0.932   8.555  0.1561  0.5655 -0.2625
13124SOL    HW140813   6.402   0.930   8.482  0.3993  1.4375 -0.5012
13124SOL    HW240814   6.550   0.942   8.514  0.3704  0.2745  0.1071
13125SOL     OW40815   4.608   2.581  12.254 -0.1166 -0.1621  0.5299
13125SOL    HW140816   4.649   2.616  12.175  0.5652 -0.8780  0.5616
13125SOL    HW240817   4.680   2.574  12.317 -0.1433 -1.9881  0.4026
13126SOL     OW40818   3.997   0.356   9.956  0.0480 -0.2658  0.5453
13126SOL    HW140819   3.917   0.408   9.948 -0.2120 -0.7456 -0.0518
13126SOL    HW240820   4.063   0.405   9.908 -0.0622 -0.2127  0.4468
13127SOL     OW40821   4.750   0.296  10.256  0.2144  0.6439  0.2559
13127SOL    HW140822   4.791   0.355  10.193 -0.9866  0.2568 -0.9324
13127SOL    HW240823   4.817   0.281  10.323  1.4493  1.2313 -0.8228
13128SOL     OW40824   4.186   0.937  12.171  0.0833  0.0614 -0.4698
13128SOL    HW140825   4.275   0.971  12.165 -0.2092  1.1106  0.7897
13128SOL    HW240826   4.139   1.000  12.225 -1.3453 -0.6590 -0.8028
13129SOL     OW40827   3.570   1.367  10.958  0.4495  0.0183 -0.3266
13129SOL    HW140828   3.547   1.279  10.926  1.5555 -0.1156 -0.8061
13129SOL    HW240829   3.486   1.410  10.973 -0.1417 -1.4845  0.9463
13130SOL     OW40830   7.515   1.304   9.087 -0.3875  0.4807  0.3897
13130SOL    HW140831   7.546   1.328   9.174  0.6781  1.1416 -0.1587
13130SOL    HW240832   7.544   1.213   9.076 -0.0629  0.5699  0.5103
13131SOL     OW40833   6.406   1.408   9.951 -0.1554  0.4842  0.2628
13131SOL    HW140834   6.348   1.461   9.896 -0.0899 -0.6995 -1.0081
13131SOL    HW240835   6.446   1.471  10.011  1.0846  2.1924 -2.1592
13132SOL     OW40836   6.001   7.481  10.208 -0.4932  0.1632  0.3852
13132SOL    HW140837   6.075   7.533  10.176  0.7797 -1.4807  0.5577
13132SOL    HW240838   5.924   7.524  10.170  0.7593 -0.3779 -3.1797
13133SOL     OW40839   6.274   2.808   8.357  0.0629 -0.0846  0.2985
13133SOL    HW140840   6.306   2.819   8.447  0.7955  1.0821 -0.0849
13133SOL    HW240841   6.241   2.718   8.355 -0.0849 -0.1005  1.7687
13134SOL     OW40842   4.399   1.013   8.838 -0.2759 -0.4585 -0.3936
13134SOL    HW140843   4.451   1.091   8.854  2.8155 -2.2422 -1.0826
13134SOL    HW240844   4.339   1.039   8.767 -1.0495  1.8999  1.0156
13135SOL     OW40845   3.369   2.917  12.018 -0.2236  0.5688 -0.0243
13135SOL    HW140846   3.444   2.888  12.069 -0.3156 -0.7858 -0.5892
13135SOL    HW240847   3.391   3.005  11.989  1.7309 -0.2480 -1.2123
13136SOL     OW40848   5.585   1.379  10.143 -0.1973  0.0828  0.3188
13136SOL    HW140849   5.638   1.316  10.095  0.4394 -0.5935  1.8425
13136SOL    HW240850   5.503   1.384  10.094 -0.2852 -1.9777  0.1744
13137SOL     OW40851   3.951   2.079   9.441  0.2483  0.1320  0.1046
13137SOL    HW140852   3.999   2.090   9.359 -1.3307  1.3949 -0.7037
13137SOL    HW240853   4.018   2.054   9.505  1.7806  0.7283 -1.2043
13138SOL     OW40854   1.735   2.189  12.259 -0.0047 -0.1658  0.5661
13138SOL    HW140855   1.746   2.272  12.212  0.3113 -0.3933  0.2317
13138SOL    HW240856   1.792   2.128  12.213 -0.7030 -0.7259  0.4219
13139SOL     OW40857   6.318   0.546  10.334  0.1510  0.3850  0.1777
13139SOL    HW140858   6.246   0.609  10.328 -0.2716  0.0088  1.0737
13139SOL    HW240859   6.338   0.522  10.244 -1.0016  0.3250 -0.0685
13140SOL     OW40860   5.305   2.025  11.294 -0.0257 -0.1966  0.2939
13140SOL    HW140861   5.258   2.109  11.288  0.4053  0.0462  0.2733
13140SOL    HW240862   5.398   2.049  11.288  0.0629 -0.8994 -2.7828
13141SOL     OW40863   6.274   1.527   9.385  0.5867 -0.0407  0.0269
13141SOL    HW140864   6.194   1.474   9.388 -0.1563  0.6476 -3.4657
13141SOL    HW240865   6.249   1.610   9.426 -0.0676 -0.2786  0.1338
13142SOL     OW40866   5.308   0.973  11.316  0.2252 -0.1140 -0.3967
13142SOL    HW140867   5.247   0.976  11.390 -0.6592 -1.2065 -1.0391
13142SOL    HW240868   5.302   0.883  11.285  1.3696  0.0592 -1.1572
13143SOL     OW40869   6.202   7.942  10.484 -0.1233 -0.2853 -0.9323
13143SOL    HW140870   6.106   7.945  10.485 -0.1036  1.1592 -0.6764
13143SOL    HW240871   6.225   7.933  10.392 -0.5105 -1.7049 -0.9024
13144SOL     OW40872   5.841   0.280   9.607 -0.2040 -0.0749 -0.5412
13144SOL    HW140873   5.835   0.319   9.694  0.6682 -0.7591 -0.1616
13144SOL    HW240874   5.905   0.335   9.561  0.4764 -0.6049 -0.2441
13145SOL     OW40875   4.209   1.603  10.169  0.2181  0.3792 -0.3862
13145SOL    HW140876   4.222   1.547  10.092 -1.0395 -0.2195 -0.1833
13145SOL    HW240877   4.147   1.670  10.140  0.2894  0.5773 -0.0927
13146SOL     OW40878   6.238   1.307  10.216  0.0499  0.5908 -0.1496
13146SOL    HW140879   6.254   1.253  10.139 -0.7870 -1.2686  0.8982
13146SOL    HW240880   6.325   1.338  10.242  1.1529 -2.9619  1.0221
13147SOL     OW40881   3.630   2.528   8.269 -0.6805 -0.0575  0.4261
13147SOL    HW140882   3.673   2.551   8.186  1.0272 -0.4014  1.1751
13147SOL    HW240883   3.632   2.610   8.320  1.6409 -0.6788  1.4921
13148SOL     OW40884   4.679   1.160   8.056  0.3240  0.0382  0.6567
13148SOL    HW140885   4.620   1.228   8.022  0.9251 -0.5047 -1.6631
13148SOL    HW240886   4.756   1.208   8.086  0.4669  0.4829 -0.3518
13149SOL     OW40887   2.987   7.826  11.674 -0.4488  0.3124 -0.4624
13149SOL    HW140888   2.959   7.763  11.741 -0.0560  0.6327  0.0077
13149SOL    HW240889   2.905   7.866  11.644 -0.7433 -0.7057 -1.0673
13150SOL     OW40890   5.293   1.309   9.602  0.1488 -0.8180  0.5021
13150SOL    HW140891   5.315   1.398   9.575 -0.0852 -1.2533 -1.2591
13150SOL    HW240892   5.208   1.316   9.645  0.5220 -0.0830  1.1291
13151SOL     OW40893   4.710   1.652  10.510  0.2962  0.1965 -0.0344
13151SOL    HW140894   4.717   1.558  10.493  0.1153  0.1758  0.0068
13151SOL    HW240895   4.755   1.665  10.594  1.3269  0.3230 -0.5869
13152SOL     OW40896   3.648   7.255   8.335  0.1514 -0.0939  0.2640
13152SOL    HW140897   3.600   7.336   8.318  0.6118  0.2833  0.7334
13152SOL    HW240898   3.599   7.212   8.405  0.6069  0.4015  0.9022
13153SOL     OW40899   4.880   1.812   8.084  0.0247 -0.3625  0.1227
13153SOL    HW140900   4.868   1.838   7.993 -0.0025  0.2412  0.2922
13153SOL    HW240901   4.957   1.862   8.113 -0.7445  0.4650  0.8007
13154SOL     OW40902   4.176   1.947  11.637 -0.0252 -0.1477 -0.3749
13154SOL    HW140903   4.128   2.029  11.623  0.5568  0.2131 -0.2801
13154SOL    HW240904   4.209   1.923  11.551  0.8862  0.4030 -0.1921
13155SOL     OW40905   4.509   0.946  10.136  0.1544  0.0207  0.1035
13155SOL    HW140906   4.440   0.978  10.194  0.0247  0.8947 -0.5292
13155SOL    HW240907   4.463   0.909  10.061  0.3319  2.3341 -1.2544
13156SOL     OW40908   3.642   0.811  10.587 -0.2405  0.0845 -0.4620
13156SOL    HW140909   3.589   0.743  10.628 -0.5745  0.4240 -0.3254
13156SOL    HW240910   3.715   0.764  10.546 -0.6027 -0.3753 -0.5823
13157SOL     OW40911   5.339   7.902  10.125 -0.1958 -0.4110 -0.2180
13157SOL    HW140912   5.296   7.840  10.184 -0.0213 -1.6387 -1.3419
13157SOL    HW240913   5.271   7.925  10.062 -0.2087  0.4293  0.0910
13158SOL     OW40914   3.475   7.749   8.982 -0.1362 -0.1225  0.0437
13158SOL    HW140915   3.487   7.696   9.061  1.3116  1.5201  1.0018
13158SOL    HW240916   3.504   7.693   8.911  2.6501 -0.2572  1.1603
13159SOL     OW40917   5.708   0.083   8.953 -0.0528 -0.4258  0.2034
13159SOL    HW140918   5.627   0.040   8.928 -0.6871  0.3886  0.7852
13159SOL    HW240919   5.727   0.049   9.041  0.9330 -1.5633 -0.4257
13160SOL     OW40920   3.525   7.713   8.691 -0.3800 -0.0249 -0.2211
13160SOL    HW140921   3.568   7.783   8.641  1.3918 -0.9034 -0.0236
13160SOL    HW240922   3.568   7.633   8.662  1.2386 -0.5493  3.0699
13161SOL     OW40923   5.585   1.545   8.569  0.2857  0.2358  1.1391
13161SOL    HW140924   5.594   1.604   8.494  0.9461  0.0974  1.1117
13161SOL    HW240925   5.508   1.492   8.548  0.8321 -0.2358  0.2569
13162SOL     OW40926   3.512   1.201  10.007 -0.2894  0.0908  0.1997
13162SOL    HW140927   3.442   1.220  10.070  1.6016  0.1195  2.4429
13162SOL    HW240928   3.568   1.279  10.010  0.9614 -0.7744  0.0673
13163SOL     OW40929   4.344   2.907  10.729 -0.2063 -0.4010  0.2961
13163SOL    HW140930   4.434   2.878  10.741 -0.0718  0.2201  0.8398
13163SOL    HW240931   4.291   2.835  10.764  0.1064 -0.3194  0.9605
13164SOL     OW40932   3.501   1.221  11.309 -0.2887 -0.1323 -0.2334
13164SOL    HW140933   3.511   1.142  11.361 -1.3382 -0.0780  0.0688
13164SOL    HW240934   3.434   1.199  11.244 -0.5700  0.4861 -0.1617
13165SOL     OW40935   5.571   1.233   9.560 -0.0615 -0.1703 -0.3281
13165SOL    HW140936   5.590   1.147   9.524 -1.1277 -1.1226  1.2683
13165SOL    HW240937   5.485   1.224   9.601 -0.1564  1.6317 -0.0291
13166SOL     OW40938   5.324   7.978  10.422 -0.0177 -0.1292 -0.2576
13166SOL    HW140939   5.340   8.064  10.461 -1.4646  0.0027  0.1120
13166SOL    HW240940   5.398   7.964  10.362  0.5019  1.1308  0.0646
13167SOL     OW40941   5.719   7.018  11.129 -0.0921  0.0003  0.2140
13167SOL    HW140942   5.676   7.042  11.047  0.2393  0.5258  0.1858
13167SOL    HW240943   5.765   6.937  11.110  0.4910  0.4411 -0.3089
13168SOL     OW40944   5.325   1.400   8.485  0.0884 -0.2529 -0.0673
13168SOL    HW140945   5.337   1.326   8.544  1.7539 -1.6433 -2.0367
13168SOL    HW240946   5.274   1.365   8.412 -1.4258  1.2870  0.1757
13169SOL     OW40947   4.061   2.041   9.186  0.0539  0.1612  0.1959
13169SOL    HW140948   3.970   2.020   9.168  0.7320 -2.3896 -0.6563
13169SOL    HW240949   4.111   1.992   9.121  2.0953  0.5332  1.3708
13170SOL     OW40950   4.842   7.580  11.885  0.6191 -0.2096  0.5110
13170SOL    HW140951   4.855   7.674  11.874  0.1292  0.1780  2.8364
13170SOL    HW240952   4.914   7.540  11.837  1.0164  1.3507 -0.2537
13171SOL     OW40953   6.238   1.352  11.775 -0.0037  0.0615  0.3915
13171SOL    HW140954   6.208   1.267  11.808  0.3329 -0.2775 -0.1816
13171SOL    HW240955   6.318   1.370  11.824 -0.5672  0.4903  1.1821
13172SOL     OW40956   3.914   2.178   8.302 -0.4304 -0.0214  0.2705
13172SOL    HW140957   3.944   2.123   8.374  0.6564 -0.0165 -0.1572
13172SOL    HW240958   3.995   2.212   8.262 -0.9773 -0.4386 -1.2578
13173SOL     OW40959   3.273   7.816  10.907 -0.2722  1.2503  0.5328
13173SOL    HW140960   3.225   7.733  10.908  1.7084  0.0340  1.5516
13173SOL    HW240961   3.300   7.828  10.998  0.6251  2.3196  0.1441
13174SOL     OW40962   4.310   1.815  11.416 -0.0891  0.3968 -0.1407
13174SOL    HW140963   4.255   1.736  11.412 -0.1355  0.4292 -0.1518
13174SOL    HW240964   4.361   1.812  11.335 -0.3785  0.5838 -0.3355
13175SOL     OW40965   3.354   1.950   9.587 -0.0683  0.0874  0.0327
13175SOL    HW140966   3.335   1.857   9.601 -1.8127  0.6631  1.8544
13175SOL    HW240967   3.387   1.954   9.497 -1.1318 -2.1186 -0.5206
13176SOL     OW40968   6.044   3.007  10.054  0.4124 -0.2554 -0.9339
13176SOL    HW140969   6.087   2.936  10.006  0.3108 -0.4656 -0.7187
13176SOL    HW240970   6.063   3.086  10.003  1.5425 -0.2493 -0.5547
13177SOL     OW40971   4.136   7.858  11.244  0.0084 -0.4422 -0.5959
13177SOL    HW140972   4.109   7.846  11.153 -2.5698 -2.0363  0.2518
13177SOL    HW240973   4.068   7.915  11.281 -0.1882 -1.5234  0.7889
13178SOL     OW40974   4.684   2.821   9.566 -0.1417  0.0843 -0.0246
13178SOL    HW140975   4.698   2.915   9.573  0.4712  0.0033 -0.1441
13178SOL    HW240976   4.670   2.805   9.473  0.5270 -0.0458 -0.1056
13179SOL     OW40977   5.919   0.173  11.766  0.2868 -0.5687  0.3540
13179SOL    HW140978   5.962   0.126  11.694  0.7353  0.4610 -0.0628
13179SOL    HW240979   5.989   0.225  11.806 -0.2281 -0.1429  0.7243
13180SOL     OW40980   5.749   0.586  11.192  0.6199 -0.2125  0.4213
13180SOL    HW140981   5.787   0.519  11.248 -0.6036 -1.2133  0.1073
13180SOL    HW240982   5.745   0.547  11.105  2.7762  1.4370 -0.4987
13181SOL     OW40983   5.753   0.020   9.567 -0.3485  0.6157  0.4641
13181SOL    HW140984   5.696   0.014   9.644 -1.7284  2.6402 -0.3309
13181SOL    HW240985   5.802   0.101   9.581  1.3552 -0.3707  0.4418
13182SOL     OW40986   4.493   1.824  10.584  0.2776 -0.4099  0.3392
13182SOL    HW140987   4.448   1.806  10.501 -0.3183  2.4361 -0.0343
13182SOL    HW240988   4.577   1.779  10.574  1.0152  1.3080 -2.6903
13183SOL     OW40989   4.121   0.073  11.940  0.0101  0.0393 -0.3208
13183SOL    HW140990   4.214   0.061  11.918 -0.2193 -1.1839 -0.7018
13183SOL    HW240991   4.096  -0.008  11.984 -1.1485 -0.1054 -1.2076
13184SOL     OW40992   4.676   1.173   9.707  0.0201 -0.0026 -0.0022
13184SOL    HW140993   4.680   1.098   9.767 -0.0572 -1.0485 -1.2793
13184SOL    HW240994   4.595   1.160   9.657 -0.9073  1.8623  0.9084
13185SOL     OW40995   5.620   0.241   9.386  0.4926  0.5774 -0.1364
13185SOL    HW140996   5.649   0.164   9.435 -0.2957 -1.2581 -2.4034
13185SOL    HW240997   5.695   0.265   9.332 -0.4496 -1.1281 -2.3455
13186SOL     OW40998   5.041   6.655  12.328 -0.0082 -0.2452 -0.0211
13186SOL    HW140999   4.949   6.640  12.308 -0.2531  1.5744 -0.4874
13186SOL    HW241000   5.072   6.713  12.258  1.4031 -0.5462  0.3147
13187SOL     OW41001   7.189   2.087   8.598 -0.1063 -0.6339 -0.3433
13187SOL    HW141002   7.142   2.165   8.626  1.3524  0.0402  0.3515
13187SOL    HW241003   7.270   2.088   8.649 -0.1950 -2.7933 -0.0734
13188SOL     OW41004   4.783   0.924  11.705  0.3036 -0.5998  0.0615
13188SOL    HW141005   4.762   0.956  11.618 -1.0683 -2.4718 -0.3502
13188SOL    HW241006   4.711   0.956  11.760  0.7794 -0.0478  0.3770
13189SOL     OW41007   7.092   1.991   9.286  0.2541 -0.0148 -0.6259
13189SOL    HW141008   7.079   2.066   9.344  0.5410 -0.2219 -0.2933
13189SOL    HW241009   7.017   1.934   9.304  1.1172 -0.7985  0.6630
13190SOL     OW41010   0.020   1.200   9.841 -0.2987 -0.5424  0.0272
13190SOL    HW141011   0.074   1.237   9.911  0.3397  1.7002 -1.5524
13190SOL    HW241012  -0.065   1.184   9.883  0.6263 -1.1512  1.7699
13191SOL     OW41013   4.595   7.750  12.129  0.1293 -0.3568 -0.3577
13191SOL    HW141014   4.627   7.765  12.040 -1.2430 -0.6888 -0.9351
13191SOL    HW241015   4.530   7.818  12.143 -0.8394 -1.2805 -0.2370
13192SOL     OW41016   3.841   1.032   9.294  0.2095  0.4016  0.0327
13192SOL    HW141017   3.854   1.121   9.260 -0.4027 -0.0496 -1.4323
13192SOL    HW241018   3.852   0.975   9.218 -2.8352 -0.5420  0.1552
13193SOL     OW41019   5.143   1.568   8.605  0.1847  0.0709  0.4807
13193SOL    HW141020   5.082   1.494   8.613 -0.1123  0.3150  0.4691
13193SOL    HW241021   5.223   1.529   8.568 -0.7897  0.1459 -1.8878
13194SOL     OW41022   4.729   7.251  10.468  0.4226 -0.0117  0.0311
13194SOL    HW141023   4.805   7.263  10.525  1.3187  1.3860 -1.3653
13194SOL    HW241024   4.767   7.236  10.381 -0.9081 -0.9227 -0.4316
13195SOL     OW41025   4.088   0.721  12.398  0.8549  0.5374  0.3349
13195SOL    HW141026   4.026   0.765  12.340  1.3507 -0.7977 -1.2878
13195SOL    HW241027   4.056   0.739  12.486 -0.4681  1.8388 -0.3730
13196SOL     OW41028   3.566   1.274   0.451  0.2043  0.1116  0.2223
13196SOL    HW141029   3.581   1.243   0.361  1.7166 -1.9234  1.0926
13196SOL    HW241030   3.650   1.312   0.478 -0.4758  1.4650  0.5489
13197SOL     OW41031   3.918   0.345   0.507  0.5317  0.0412 -0.2440
13197SOL    HW141032   3.991   0.289   0.482 -0.7311 -1.6962 -0.1637
13197SOL    HW241033   3.886   0.308   0.590 -0.4951  0.7191 -0.3108
13198SOL     OW41034   6.204   1.041   0.620  0.0405 -0.3907 -0.5223
13198SOL    HW141035   6.178   0.949   0.618 -0.9166 -0.3143  2.6233
13198SOL    HW241036   6.146   1.084   0.557 -2.0183 -1.4592  0.5321
13199SOL     OW41037   5.054   0.924  11.889  0.6327  0.3168  0.0991
13199SOL    HW141038   4.969   0.905  11.850  1.1248 -0.3751 -0.6612
13199SOL    HW241039   5.106   0.846  11.874  1.9219  1.3182 -0.8669
13200SOL     OW41040   3.982   0.452  10.473  0.5076  0.0606 -0.0210
13200SOL    HW141041   3.979   0.385  10.405 -1.9581 -1.0046  1.0106
13200SOL    HW241042   4.029   0.411  10.546 -1.3611 -0.7991  0.7652
13201SOL     OW41043   4.021   0.762  12.037 -0.4511 -0.4470  0.5372
13201SOL    HW141044   3.989   0.817  11.966  0.7933  1.5790  1.4269
13201SOL    HW241045   4.078   0.820  12.088  0.5757 -2.4686  1.8391
13202SOL     OW41046   4.341   0.697  12.449 -0.4927 -0.2447 -0.2571
13202SOL    HW141047   4.340   0.605  12.475 -1.0787 -0.0312  0.5294
13202SOL    HW241048   4.253   0.714  12.416 -0.8492  0.3631  0.9195
13203SOL     OW41049   4.584   7.726  10.394 -0.2452  0.1079  0.5627
13203SOL    HW141050   4.549   7.754  10.310  0.8422  0.3784  0.1801
13203SOL    HW241051   4.552   7.636  10.405 -1.7917  0.6410  0.6824
13204SOL     OW41052   6.001   2.059  11.276  0.3212  0.3397  0.4683
13204SOL    HW141053   6.086   2.016  11.287 -0.2613 -1.6434 -1.8983
13204SOL    HW241054   5.949   2.029  11.350  0.9104 -0.5478  0.5414
13205SOL     OW41055   3.441   2.305  12.087  0.2667 -0.5141  0.6477
13205SOL    HW141056   3.529   2.270  12.070  1.1704  2.1841 -0.8392
13205SOL    HW241057   3.420   2.276  12.175  1.6399 -3.1626  0.2120
13206SOL     OW41058   2.953   2.016   0.113  0.4174 -0.3137 -0.1930
13206SOL    HW141059   2.906   1.958   0.172 -0.7369 -0.0454 -0.8333
13206SOL    HW241060   2.916   1.998   0.026  0.1314  1.2683 -0.4276
13207SOL     OW41061   2.033   7.664  11.011 -0.5480  0.0173  0.7857
13207SOL    HW141062   2.112   7.680  10.960 -0.7102 -1.4119  0.0397
13207SOL    HW241063   2.006   7.751  11.041 -1.4393  1.2541 -3.0046
13208SOL     OW41064   3.911   0.324  11.916  0.0585 -0.4265 -0.4940
13208SOL    HW141065   3.965   0.252  11.947 -0.9522 -0.6662  0.7913
13208SOL    HW241066   3.821   0.294  11.929 -0.3995  1.5152  1.2709
13209SOL     OW41067   3.557   7.683  11.474 -0.4918  0.5204 -0.0424
13209SOL    HW141068   3.583   7.729  11.394 -0.4304  0.6442  0.0499
13209SOL    HW241069   3.473   7.643  11.451 -0.7712  1.0618  0.0256
13210SOL     OW41070   5.480   1.582  11.106  0.4152  0.2412 -0.0402
13210SOL    HW141071   5.545   1.608  11.171  0.2089  0.2603  0.1593
13210SOL    HW241072   5.427   1.661  11.092 -1.1917 -0.4535  1.7073
13211SOL     OW41073   3.638   3.739   0.043 -0.1146 -0.2020 -0.4283
13211SOL    HW141074   3.569   3.771  -0.015  0.1139 -0.7446 -1.0113
13211SOL    HW241075   3.599   3.742   0.131 -0.0142  1.8794 -0.4061
13212SOL     OW41076   7.499   2.216   9.711 -0.2184  0.4538 -0.1082
13212SOL    HW141077   7.497   2.157   9.636  0.2471  0.2857  0.0048
13212SOL    HW241078   7.409   2.216   9.744 -0.7878  1.7088 -1.5474
13213SOL     OW41079   3.773   1.293  12.135  0.0234 -0.2562 -0.1879
13213SOL    HW141080   3.830   1.244  12.076  0.8414  0.0080  0.3738
13213SOL    HW241081   3.687   1.288  12.093 -0.0599 -2.6226  0.1219
13214SOL     OW41082   2.484   1.014   0.775  0.8861 -0.1914  0.1218
13214SOL    HW141083   2.566   1.010   0.726  0.6922  1.3502 -0.3867
13214SOL    HW241084   2.417   0.993   0.710  0.6584  1.4966 -0.2326
13215SOL     OW41085   3.716   2.260  12.113  0.2753  0.0965 -0.1723
13215SOL    HW141086   3.782   2.240  12.178  0.0039 -0.0864  0.0489
13215SOL    HW241087   3.725   2.354  12.097  0.4627  0.1053 -0.0070
13216SOL     OW41088   6.788   1.367   9.692  0.0994  0.0561 -0.0618
13216SOL    HW141089   6.786   1.454   9.732  0.9426 -0.1661  0.4774
13216SOL    HW241090   6.742   1.311   9.755  0.9529 -0.1890  0.3553
13217SOL     OW41091   2.108   0.420  11.939  0.4144 -0.4304  0.3009
13217SOL    HW141092   2.203   0.413  11.926  0.2725 -0.7137 -0.7348
13217SOL    HW241093   2.075   0.332  11.922 -0.3102  0.2334 -2.2649
13218SOL     OW41094   5.341   0.954  10.911 -0.0760 -0.4202 -0.3250
13218SOL    HW141095   5.380   1.026  10.862 -0.5126  0.6845  0.8913
13218SOL    HW241096   5.413   0.916  10.961  0.0558 -0.5048 -0.5778
13219SOL     OW41097   4.924   0.717  11.276  0.5364  0.3505  0.4146
13219SOL    HW141098   4.830   0.729  11.261  0.8632  2.2801 -0.3594
13219SOL    HW241099   4.934   0.730  11.370  0.0851  0.4973  0.4482
13220SOL     OW41100   5.553   2.565  11.404 -0.3035  0.2721  0.2691
13220SOL    HW141101   5.518   2.506  11.338  1.1948 -2.1092  1.4810
13220SOL    HW241102   5.489   2.563  11.475 -0.8736  1.1603 -0.2015
13221SOL     OW41103   4.017   0.271  10.234  0.1840 -0.1037  0.5427
13221SOL    HW141104   4.030   0.322  10.154  0.0913 -0.4963  0.2730
13221SOL    HW241105   4.054   0.186  10.215 -0.4377 -0.4124  0.6790
13222SOL     OW41106   5.317   1.238  11.136 -0.2588  0.0419 -0.2089
13222SOL    HW141107   5.239   1.205  11.092 -1.1211  0.9597  0.5841
13222SOL    HW241108   5.363   1.159  11.165 -1.8627 -0.5169  0.9663
13223SOL     OW41109   3.539   7.936  12.252 -0.1897  0.2297  0.5601
13223SOL    HW141110   3.517   7.962  12.162 -0.1708  0.5271  0.6404
13223SOL    HW241111   3.569   7.846  12.244 -1.7820 -0.3260  0.4886
13224SOL     OW41112   5.108   7.419  11.508 -0.2929  0.2190  0.4511
13224SOL    HW141113   5.099   7.469  11.427 -1.4073 -1.1264 -0.3035
13224SOL    HW241114   5.068   7.334  11.489 -0.1403 -0.3147  2.2635
13225SOL     OW41115   2.286   0.046  11.541  0.0621 -0.6912 -0.4476
13225SOL    HW141116   2.221  -0.018  11.570 -1.4483  0.8842 -0.2013
13225SOL    HW241117   2.235   0.113  11.496  1.4213  1.0270  0.4671
13226SOL     OW41118   2.584   0.417  11.088 -0.4026  0.5253 -0.5254
13226SOL    HW141119   2.618   0.338  11.045  0.5773  1.2448 -1.1128
13226SOL    HW241120   2.571   0.391  11.179  0.1083 -0.2591 -0.6653
13227SOL     OW41121   4.983   3.039  11.920  0.0701  0.0506  0.5744
13227SOL    HW141122   4.897   3.078  11.904  0.3446  0.6799  0.5967
13227SOL    HW241123   5.016   3.087  11.996 -0.7194 -2.0819  2.3665
13228SOL     OW41124   2.247   5.336  11.569 -0.5533  0.1675 -0.1923
13228SOL    HW141125   2.280   5.416  11.528 -1.2274 -0.2750 -1.6696
13228SOL    HW241126   2.201   5.291  11.499  1.9115 -2.7699 -0.1421
13229SOL     OW41127   5.785   1.647  11.218 -0.7246  0.1938  0.1918
13229SOL    HW141128   5.775   1.699  11.297  2.1923  1.9932 -0.4805
13229SOL    HW241129   5.855   1.585  11.239  0.1154  0.7249 -0.9436
13230SOL     OW41130   3.027   1.180  12.379  0.2122 -0.1386 -0.6747
13230SOL    HW141131   3.038   1.263  12.332 -1.0987 -0.6318 -1.9289
13230SOL    HW241132   2.933   1.172  12.390  0.1745 -2.1988 -1.9987
13231SOL     OW41133   5.610   2.083   9.747  0.0645 -0.3121  0.3718
13231SOL    HW141134   5.656   2.081   9.663  1.5124 -0.1049  1.1172
13231SOL    HW241135   5.524   2.046   9.729 -0.1673  1.0033 -1.4881
13232SOL     OW41136   3.101   7.506  12.387 -0.7318  0.5587 -0.3241
13232SOL    HW141137   3.161   7.550  12.447  0.2180  1.4330 -1.8318
13232SOL    HW241138   3.131   7.534  12.300 -1.8450 -0.9074 -1.2130
13233SOL     OW41139   3.774   1.822   0.283  0.2432 -0.1491 -0.2050
13233SOL    HW141140   3.720   1.843   0.207 -0.4536 -0.9133  0.0697
13233SOL    HW241141   3.718   1.768   0.339  0.3798  1.2426  1.3679
13234SOL     OW41142   4.803   2.222  11.722 -0.9735 -0.0600  0.5463
13234SOL    HW141143   4.834   2.131  11.724  0.0656  0.2796  0.2926
13234SOL    HW241144   4.710   2.215  11.743 -0.7803 -1.1313  1.1701
13235SOL     OW41145   4.394   1.738  10.317 -0.1111 -0.1856  0.1322
13235SOL    HW141146   4.427   1.789  10.243 -1.3939  1.5653  0.6901
13235SOL    HW241147   4.333   1.676  10.277 -0.1768  0.1993 -0.3858
13236SOL     OW41148   5.872   1.351  10.448  0.4380  0.2490  0.0296
13236SOL    HW141149   5.784   1.327  10.417  0.1774 -1.0570  1.6394
13236SOL    HW241150   5.859   1.433  10.495  0.5220  1.2733 -1.6445
13237SOL     OW41151   4.392   2.728   0.150  0.4267  1.0084 -0.2060
13237SOL    HW141152   4.445   2.649   0.155 -0.4674  0.2202 -2.2711
13237SOL    HW241153   4.437   2.790   0.208  2.3647 -0.2865 -0.2183
13238SOL     OW41154   4.374   1.011   1.608  0.3566  0.1661  0.3526
13238SOL    HW141155   4.406   1.076   1.546  0.6053  1.0756  1.4191
13238SOL    HW241156   4.361   0.932   1.555 -0.8799  1.3220 -1.1615
13239SOL     OW41157   6.502   1.076   0.671 -0.0172  0.2094 -0.2899
13239SOL    HW141158   6.409   1.056   0.661  0.3386 -1.4403 -0.5864
13239SOL    HW241159   6.522   1.136   0.599 -0.7123  0.1321 -0.5537
13240SOL     OW41160   2.446   0.052  11.309 -0.2252 -0.4018 -0.2692
13240SOL    HW141161   2.540   0.061  11.324 -0.3757  1.3078 -0.2563
13240SOL    HW241162   2.407   0.059  11.396 -0.4566  0.2654 -0.4239
13241SOL     OW41163   4.408   0.120  11.963 -0.0810  0.3979  0.1294
13241SOL    HW141164   4.461   0.200  11.964 -0.6866  0.8259  1.5892
13241SOL    HW241165   4.412   0.089  11.873  0.6296  1.7687 -0.3405
13242SOL     OW41166   3.809   7.783  11.580 -0.2313  0.1779 -0.2780
13242SOL    HW141167   3.720   7.765  11.550 -0.1949  0.2078 -0.4051
13242SOL    HW241168   3.798   7.839  11.657 -0.2638  2.1594 -1.6583
13243SOL     OW41169   7.058   0.287  12.187 -0.1042  0.0714 -0.0063
13243SOL    HW141170   7.076   0.231  12.263  1.0054  1.1419  0.5446
13243SOL    HW241171   7.142   0.325  12.165 -0.3071 -0.5428 -2.0796
13244SOL     OW41172   4.401   7.836  11.325  0.6784  0.1987 -0.1870
13244SOL    HW141173   4.309   7.824  11.304  0.3493 -0.1771  1.4110
13244SOL    HW241174   4.446   7.825  11.241 -0.7341  0.6993 -1.0416
13245SOL     OW41175   6.019   2.033  11.791 -0.0215  0.3425  0.2979
13245SOL    HW141176   6.052   2.116  11.758 -0.2897 -0.0378 -0.9797
13245SOL    HW241177   5.927   2.030  11.763  0.5237 -1.2887 -1.5594
13246SOL     OW41178   4.248   7.657  11.843  0.5573  0.3620  0.3274
13246SOL    HW141179   4.293   7.575  11.862 -0.6628 -0.0903  1.4748
13246SOL    HW241180   4.289   7.690  11.763  1.8152 -0.7980  0.4685
13247SOL     OW41181   2.018   6.079  11.346 -0.1178 -0.3050 -0.2644
13247SOL    HW141182   2.100   6.032  11.357  0.0130  0.1288  0.7249
13247SOL    HW241183   1.966   6.055  11.422 -0.6055  0.0244 -0.4891
13248SOL     OW41184   3.549   0.595  10.732  0.4295  0.7400  0.0666
13248SOL    HW141185   3.561   0.576  10.825 -0.9325  0.3915  0.1920
13248SOL    HW241186   3.460   0.564  10.713  1.4521 -1.2485 -1.8714
13249SOL     OW41187   4.039   1.022  11.185 -0.1218  0.0534  0.4730
13249SOL    HW141188   4.060   1.019  11.091 -0.1351 -1.8022  0.4833
13249SOL    HW241189   3.974   0.953  11.196  0.9394 -0.7433  2.0797
13250SOL     OW41190   5.189   2.159   1.041  0.2888 -0.0435  0.2014
13250SOL    HW141191   5.242   2.105   1.100  1.1124  0.0160 -0.4629
13250SOL    HW241192   5.253   2.199   0.982 -0.5545 -0.4143 -0.9809
13251SOL     OW41193   3.906   0.619  11.529  0.4467  0.0396 -0.0165
13251SOL    HW141194   3.851   0.658  11.596  2.1928 -0.2782  1.6876
13251SOL    HW241195   3.899   0.525  11.542 -0.5499 -0.1191 -1.4580
13252SOL     OW41196   2.644   0.549   1.087 -0.1336  0.2843  0.3473
13252SOL    HW141197   2.725   0.535   1.136  1.0132 -0.4137 -1.6256
13252SOL    HW241198   2.634   0.469   1.035 -3.2649 -0.5917  2.0043
13253SOL     OW41199   2.916   0.096  12.383 -0.7777  0.3627 -0.3625
13253SOL    HW141200   2.954   0.137  12.460 -1.0977 -2.2798  1.3278
13253SOL    HW241201   2.948   0.006  12.385 -2.7064 -0.4552 -1.9728
13254SOL     OW41202   5.135   0.709  12.182  0.5822  0.3077 -0.3108
13254SOL    HW141203   5.148   0.714  12.088  0.3542 -3.4874 -0.7118
13254SOL    HW241204   5.040   0.698  12.193  0.3399  2.7351  0.6014
13255SOL     OW41205   4.631   7.862  11.879  0.4298 -0.4371 -0.3828
13255SOL    HW141206   4.552   7.907  11.850 -0.5486 -0.9057  1.3733
13255SOL    HW241207   4.641   7.789  11.818 -0.5016 -0.3816 -0.6212
13256SOL     OW41208   6.969   0.857   0.163 -0.3841  0.2394 -0.1620
13256SOL    HW141209   7.018   0.775   0.172  1.0245  1.0482 -0.1582
13256SOL    HW241210   6.913   0.861   0.240 -2.1159 -1.7369 -1.2070
13257SOL     OW41211   5.449   0.338  11.006 -0.3029  0.0484  0.6477
13257SOL    HW141212   5.417   0.375  10.924 -1.5450 -2.1694  0.0469
13257SOL    HW241213   5.513   0.272  10.980 -0.0510 -0.0707  1.5138
13258SOL     OW41214   3.658   0.254  10.530  0.6268 -0.2820 -0.1933
13258SOL    HW141215   3.740   0.222  10.493  1.0527  0.8491 -0.2684
13258SOL    HW241216   3.629   0.323  10.470 -0.4434 -0.7347 -0.2261
13259SOL     OW41217   4.053   2.337  11.910  0.2371 -0.0766 -0.2012
13259SOL    HW141218   4.009   2.371  11.832  0.8271  0.7207 -0.1887
13259SOL    HW241219   4.109   2.266  11.876  0.3360  0.1296 -0.4754
13260SOL     OW41220   4.788   0.495  11.069 -0.4920 -0.8594  0.0846
13260SOL    HW141221   4.782   0.499  11.165  2.5831  0.6787  0.3227
13260SOL    HW241222   4.806   0.585  11.042  1.2260 -1.6486 -1.6431
13261SOL     OW41223   4.305   0.393  10.406  0.1836  0.4309 -0.3107
13261SOL    HW141224   4.296   0.429  10.495  0.1388  0.5029 -0.3445
13261SOL    HW241225   4.382   0.437  10.370  1.5228 -1.1664  0.4580
13262SOL     OW41226   4.648   1.635  12.363 -0.1006 -0.0339 -0.4499
13262SOL    HW141227   4.644   1.681  12.447 -0.5449  0.1651 -0.5755
13262SOL    HW241228   4.558   1.637  12.330 -0.2131 -1.3770 -0.2567
13263SOL     OW41229   4.344   2.225  12.358  0.1060 -0.4692  0.0302
13263SOL    HW141230   4.316   2.170  12.284  1.9135 -1.5552  0.1015
13263SOL    HW241231   4.341   2.167  12.434  0.6673 -0.0661  0.3686
13264SOL     OW41232   3.785   7.316  10.707 -0.3438  0.1500 -0.2675
13264SOL    HW141233   3.840   7.238  10.703 -1.6218 -0.7365 -1.3803
13264SOL    HW241234   3.740   7.309  10.791 -0.2669 -0.1746 -0.2515
13265SOL     OW41235   5.097   0.144  12.460  0.3824 -0.0902  0.1715
13265SOL    HW141236   5.077   0.229  12.420  0.9381  0.6802  1.4789
13265SOL    HW241237   5.081   0.157  12.553  1.3366 -1.1535  0.5081
13266SOL     OW41238   6.473   0.215   1.444 -0.6828 -0.1670 -0.0652
13266SOL    HW141239   6.435   0.180   1.525 -1.8537  0.3043 -0.3899
13266SOL    HW241240   6.530   0.286   1.474 -0.9103 -0.1593  0.3674
13267SOL     OW41241   1.203   7.002  11.220  0.0472 -0.0788 -0.1656
13267SOL    HW141242   1.233   7.082  11.264 -0.2312 -0.2828  0.4066
13267SOL    HW241243   1.239   7.008  11.132 -0.6308  1.0619 -0.3824
13268SOL     OW41244   4.090   7.766  10.973 -0.0372  0.2208 -0.6192
13268SOL    HW141245   4.050   7.687  10.935 -0.7979  0.7373 -0.9234
13268SOL    HW241246   4.165   7.784  10.917 -0.5864  0.4169 -1.3133
13269SOL     OW41247   4.969   0.792  11.551 -0.5844  0.0712  0.1697
13269SOL    HW141248   4.991   0.704  11.582  0.8265  0.8896  1.5741
13269SOL    HW241249   4.892   0.817  11.602 -1.5642 -0.6474 -0.8775
13270SOL     OW41250   5.528   1.197  12.167  0.2461 -0.0478 -0.2900
13270SOL    HW141251   5.594   1.187  12.236  0.6366  0.7223 -0.5362
13270SOL    HW241252   5.452   1.233  12.211  0.0183 -0.8609 -0.0174
13271SOL     OW41253   6.010   1.139   0.446  0.4934  0.0177 -0.1584
13271SOL    HW141254   6.014   1.187   0.364  0.6162  0.8171  0.3117
13271SOL    HW241255   5.964   1.058   0.423 -3.8255  2.1645 -0.1200
13272SOL     OW41256   4.262   2.082  12.145 -0.7818 -0.4431  0.0677
13272SOL    HW141257   4.338   2.024  12.140 -1.2906 -1.0152 -1.7049
13272SOL    HW241258   4.210   2.062  12.067 -1.1911  2.1127 -0.4391
13273SOL     OW41259   1.879   0.896   0.245 -0.4558  0.4196  0.6753
13273SOL    HW141260   1.959   0.937   0.278  0.6719  0.0942 -1.4337
13273SOL    HW241261   1.906   0.807   0.223 -1.8164 -0.1808  1.3716
13274SOL     OW41262   3.142   1.685   0.372 -0.4947  0.3272 -0.4345
13274SOL    HW141263   3.049   1.663   0.370 -0.6302  0.8709 -2.1236
13274SOL    HW241264   3.186   1.602   0.387 -1.2529  0.1279  0.8027
13275SOL     OW41265   4.401   1.586   0.664 -0.8578 -0.6953 -0.0910
13275SOL    HW141266   4.358   1.671   0.665  2.3367  1.1160 -1.5356
13275SOL    HW241267   4.446   1.582   0.749 -0.8571 -0.8614 -0.0995
13276SOL     OW41268   4.004   1.085   1.603 -0.6442 -0.3556  0.3410
13276SOL    HW141269   3.957   1.009   1.637 -0.5164 -0.4517  0.3042
13276SOL    HW241270   4.096   1.069   1.626 -0.7841  0.4112  1.4917
13277SOL     OW41271   5.017   0.022  10.793 -0.8996  0.1909 -0.5021
13277SOL    HW141272   4.993  -0.017  10.709 -2.2852 -1.9683  0.8064
13277SOL    HW241273   4.939   0.013  10.847  0.2796  0.5933  1.3498
13278SOL     OW41274   3.461   7.833   0.731  0.3458  0.4161  0.2426
13278SOL    HW141275   3.486   7.830   0.639 -2.5596 -1.8081 -0.6011
13278SOL    HW241276   3.374   7.874   0.731 -1.0166 -2.2584  1.5646
13279SOL     OW41277   5.971   1.442  10.767  0.2753  0.3155 -0.5211
13279SOL    HW141278   5.921   1.460  10.846  0.1718  0.1995 -0.5603
13279SOL    HW241279   6.013   1.525  10.746 -0.3624  0.5746 -0.8105
13280SOL     OW41280   2.579   0.355  11.372  0.1786  0.3625  0.2547
13280SOL    HW141281   2.673   0.361  11.354  0.2768 -0.7069  0.3293
13280SOL    HW241282   2.570   0.273  11.421 -1.0755 -0.8022 -1.8113
13281SOL     OW41283   6.557   1.470  11.728  0.1505  0.3570 -0.1514
13281SOL    HW141284   6.611   1.400  11.764  0.3205 -0.0764 -1.2353
13281SOL    HW241285   6.602   1.551  11.755  1.0013  0.0110 -0.5110
13282SOL     OW41286   5.448   2.341  10.985  0.6460  0.2150 -0.2505
13282SOL    HW141287   5.456   2.376  10.896 -3.1679 -2.6344 -1.9888
13282SOL    HW241288   5.505   2.264  10.985 -0.7947 -0.9017 -1.0132
13283SOL     OW41289   4.124   1.449  11.033 -0.5541 -0.0779  0.5649
13283SOL    HW141290   4.117   1.397  10.953  0.8526  0.2693  0.1805
13283SOL    HW241291   4.083   1.395  11.101 -2.0796 -0.2270 -0.4348
13284SOL     OW41292   4.036   0.500   0.242 -0.0438 -0.1671  0.3359
13284SOL    HW141293   3.943   0.479   0.255 -0.2153 -0.3098 -1.0310
13284SOL    HW241294   4.039   0.596   0.244  0.0808 -0.1675  2.1853
13285SOL     OW41295   3.572   0.794   9.767  0.1504  0.1052  0.6026
13285SOL    HW141296   3.588   0.880   9.807 -0.1066  0.9075 -0.9265
13285SOL    HW241297   3.498   0.809   9.708 -0.7020 -1.4868  1.2115
13286SOL     OW41298   3.787   7.170   0.357 -0.7760 -0.3600 -0.2662
13286SOL    HW141299   3.720   7.233   0.386 -0.1396  0.4022 -0.4251
13286SOL    HW241300   3.822   7.134   0.439 -0.7260 -0.0603 -0.1522
13287SOL     OW41301   3.041   1.405  12.199  0.2738  0.5471 -0.5740
13287SOL    HW141302   3.006   1.350  12.129 -2.7894 -0.3109  1.4227
13287SOL    HW241303   3.028   1.494  12.169 -1.5818  0.2054 -0.9305
13288SOL     OW41304   3.108   2.268  12.070  0.3796 -0.4809  0.4507
13288SOL    HW141305   3.037   2.224  12.022 -0.5822 -0.4056  1.7495
13288SOL    HW241306   3.147   2.200  12.124  0.0314 -0.1380  1.1579
13289SOL     OW41307   3.858   7.816  12.118 -0.4344 -0.3550 -0.4171
13289SOL    HW141308   3.950   7.843  12.113 -0.8186  1.2177  0.4166
13289SOL    HW241309   3.850   7.778  12.206 -0.3484 -1.5670 -0.9043
13290SOL     OW41310   4.052   6.606  10.989  0.0436 -0.2931 -0.0426
13290SOL    HW141311   4.141   6.615  11.024 -0.6523  0.5254  1.6775
13290SOL    HW241312   4.039   6.512  10.981  0.8621 -0.4474  0.2673
13291SOL     OW41313   5.482   0.269   0.122 -0.3043  0.1041  0.0181
13291SOL    HW141314   5.540   0.255   0.047  0.5536 -0.2362  0.7226
13291SOL    HW241315   5.458   0.180   0.150 -1.4948  0.2465 -0.5003
13292SOL     OW41316   3.846   7.101  11.426 -0.1372 -0.5505  0.1608
13292SOL    HW141317   3.935   7.129  11.404 -0.0742 -1.9398 -1.5659
13292SOL    HW241318   3.855   7.061  11.512  0.8445 -0.4167  0.1397
13293SOL     OW41319   4.163   7.724   0.640 -0.0438  0.3988 -0.3633
13293SOL    HW141320   4.079   7.742   0.683  0.4615  1.0625  0.3644
13293SOL    HW241321   4.188   7.638   0.675 -0.9087 -0.3009 -1.3903
13294SOL     OW41322   2.536   0.647  12.225 -0.0238  0.0327  0.0095
13294SOL    HW141323   2.472   0.630  12.295 -0.6420  0.0940 -0.5364
13294SOL    HW241324   2.598   0.574  12.232 -0.9953 -0.8706 -0.4020
13295SOL     OW41325   3.301   7.644  11.984  0.6071  0.4946  0.3316
13295SOL    HW141326   3.225   7.604  12.027  1.7330 -0.1035  1.8788
13295SOL    HW241327   3.264   7.717  11.934 -0.8189  1.5307  2.6749
13296SOL     OW41328   2.468   7.741  11.810 -0.2186  0.4306 -0.1372
13296SOL    HW141329   2.441   7.680  11.742 -0.6781 -0.3121  0.6771
13296SOL    HW241330   2.492   7.685  11.884 -0.9482  1.2428  0.7422
13297SOL     OW41331   3.855   0.997  12.281  0.3088  0.1059  0.0813
13297SOL    HW141332   3.841   1.016  12.188 -0.5450  1.5766  0.4847
13297SOL    HW241333   3.836   0.903  12.289 -1.8618  0.4101 -0.8486
13298SOL     OW41334   6.836   1.127  10.947  0.8239  1.0647 -0.1430
13298SOL    HW141335   6.742   1.145  10.947  0.5160 -0.2906 -1.4899
13298SOL    HW241336   6.873   1.190  10.886  0.6982  1.2346 -0.0426
13299SOL     OW41337   4.478   0.652  11.521  0.1001 -0.2108  0.0863
13299SOL    HW141338   4.398   0.688  11.560 -1.6632 -0.7915 -2.6337
13299SOL    HW241339   4.457   0.560  11.505  0.0410  0.2712 -3.3696
13300SOL     OW41340   4.044   0.774   0.185 -0.1777 -0.2339 -0.4630
13300SOL    HW141341   4.137   0.792   0.177 -0.6568  2.0222 -1.5301
13300SOL    HW241342   4.012   0.837   0.250 -1.1175 -0.3454 -0.8018
13301SOL     OW41343   3.105   1.071   0.586  0.4344 -0.6484 -0.1966
13301SOL    HW141344   3.113   1.024   0.504  0.3130 -2.3084  0.6970
13301SOL    HW241345   3.090   1.003   0.652  1.2252  0.5505  1.3109
13302SOL     OW41346   4.971   1.087  11.347  0.2233 -0.0029 -0.1264
13302SOL    HW141347   5.052   1.076  11.398  0.4445  2.6151  0.2446
13302SOL    HW241348   4.973   1.179  11.321 -2.9195  0.2896  0.3552
13303SOL     OW41349   4.826   2.226  12.375  0.4152 -0.2573 -0.8715
13303SOL    HW141350   4.872   2.172  12.440  0.3188  1.1633  0.4317
13303SOL    HW241351   4.798   2.164  12.308 -0.8700 -2.0469  1.2080
13304SOL     OW41352   4.512   2.471   0.126  0.4175 -0.4152  0.5121
13304SOL    HW141353   4.527   2.377   0.123 -0.8629 -0.7543  2.6947
13304SOL    HW241354   4.494   2.495   0.035 -0.2911 -2.4762  0.0500
13305SOL     OW41355   2.387   3.004  11.380 -0.4002  0.2717 -0.7041
13305SOL    HW141356   2.369   3.035  11.468  0.3698 -1.7860  0.2499
13305SOL    HW241357   2.300   2.995  11.339 -0.7172  1.8996 -0.4293
13306SOL     OW41358   5.130   1.606  12.073  0.0123  0.2185 -0.3352
13306SOL    HW141359   5.088   1.521  12.086 -3.1329  1.6782  0.1716
13306SOL    HW241360   5.115   1.625  11.980  0.4840  0.3198 -0.3895
13307SOL     OW41361   3.575   7.280  10.894  0.7583 -0.0535  0.0385
13307SOL    HW141362   3.512   7.264  10.824  0.7512  0.7842 -0.1652
13307SOL    HW241363   3.522   7.304  10.970  0.7928 -0.3328  0.1517
13308SOL     OW41364   3.566   0.377   0.776  0.6873  0.3254 -0.7644
13308SOL    HW141365   3.494   0.349   0.833  0.4704  0.1298 -1.1308
13308SOL    HW241366   3.603   0.296   0.743  1.0491  0.4279 -0.6172
13309SOL     OW41367   5.538   0.568  11.576 -0.2102 -0.1763 -0.4035
13309SOL    HW141368   5.492   0.647  11.606  0.3477  0.0562 -0.1509
13309SOL    HW241369   5.621   0.569  11.623  0.3019 -0.2909 -1.2858
13310SOL     OW41370   2.989   1.830   1.254 -0.1595  0.1571 -0.1980
13310SOL    HW141371   2.971   1.789   1.339  1.5231 -1.1916 -0.4467
13310SOL    HW241372   2.931   1.906   1.252 -0.9925 -0.3573  1.7100
13311SOL     OW41373   4.299   7.784  11.583  0.2214  0.7074 -0.7876
13311SOL    HW141374   4.342   7.794  11.498  0.6609  0.8025 -0.5599
13311SOL    HW241375   4.214   7.746  11.563  1.6556 -2.7995 -1.0273
13312SOL     OW41376   5.717   0.834  11.262  0.5832 -0.1147 -0.5020
13312SOL    HW141377   5.734   0.744  11.234 -0.4616 -0.4599 -0.0554
13312SOL    HW241378   5.780   0.850  11.333  1.5494 -0.0824 -1.3381
13313SOL     OW41379   4.168   0.487  11.808 -0.1838 -0.4408  0.5436
13313SOL    HW141380   4.186   0.412  11.752 -0.3603  0.4418 -0.7470
13313SOL    HW241381   4.252   0.532  11.815 -0.5567  0.5027 -0.6568
13314SOL     OW41382   4.055   0.734   0.836  0.0325 -0.3311  0.0537
13314SOL    HW141383   4.058   0.726   0.931  0.2585 -1.5419 -0.0355
13314SOL    HW241384   3.976   0.786   0.819 -1.1364 -1.7450  0.8467
13315SOL     OW41385   5.269   0.057  11.084  0.5829  0.1033  0.6284
13315SOL    HW141386   5.238   0.038  10.995  0.3410 -0.4042  0.8196
13315SOL    HW241387   5.228   0.141  11.106 -0.6369 -0.5329  0.8631
13316SOL     OW41388   4.299   0.468  12.174  0.2710  0.3019  0.5957
13316SOL    HW141389   4.209   0.447  12.196  0.3250 -2.4678 -1.3248
13316SOL    HW241390   4.346   0.462  12.257 -0.9299 -0.5749  1.2375
13317SOL     OW41391   4.230   1.481  12.177 -0.1186 -0.3439 -0.0869
13317SOL    HW141392   4.176   1.449  12.105 -0.4916  0.4994 -0.1980
13317SOL    HW241393   4.264   1.565  12.145  0.6244 -0.4929  0.2834
13318SOL     OW41394   3.308   0.485  11.672  0.0927 -0.2916 -0.2966
13318SOL    HW141395   3.234   0.434  11.704  0.0345  0.2841  0.5228
13318SOL    HW241396   3.283   0.576  11.688  0.4778 -0.0278 -1.1162
13319SOL     OW41397   4.106   7.435  11.498 -0.0883 -0.0979  0.2646
13319SOL    HW141398   4.121   7.529  11.510  2.9909 -0.4983  0.2504
13319SOL    HW241399   4.042   7.430  11.427 -2.1100  1.9715  1.8081
13320SOL     OW41400   3.863   0.464  10.791 -0.0329 -0.2258  0.0674
13320SOL    HW141401   3.827   0.488  10.706  1.0314  0.7497 -0.1216
13320SOL    HW241402   3.823   0.379  10.811  0.3837 -0.8931 -1.8043
13321SOL     OW41403   5.993   1.423  12.418  0.4765 -0.0476  0.7031
13321SOL    HW141404   5.927   1.467  12.471 -1.4423  1.3185 -2.5513
13321SOL    HW241405   6.065   1.485  12.413 -0.2574  0.7539 -0.0589
13322SOL     OW41406   6.457   1.944   1.620 -0.1137  0.0654 -0.0489
13322SOL    HW141407   6.409   1.982   1.693 -2.3436 -0.7336 -1.0169
13322SOL    HW241408   6.460   1.850   1.639  1.9536  0.1731  0.4320
13323SOL     OW41409   4.508   1.002  11.341 -0.2689 -0.0159 -0.0205
13323SOL    HW141410   4.444   0.960  11.397  0.0445 -1.0964 -0.4495
13323SOL    HW241411   4.457   1.039  11.269 -0.3359 -1.9413 -1.0162
13324SOL     OW41412   5.164   0.587   9.784 -0.5011 -0.2195 -0.3128
13324SOL    HW141413   5.228   0.608   9.852  0.4223  0.2705 -1.3137
13324SOL    HW241414   5.182   0.495   9.763 -0.3116 -0.1679 -0.3838
13325SOL     OW41415   5.136   1.526   1.150 -0.0415 -0.2047 -0.5170
13325SOL    HW141416   5.072   1.568   1.093  0.0725  0.8399  0.0890
13325SOL    HW241417   5.095   1.526   1.236  0.4263 -0.3102 -0.2929
13326SOL     OW41418   6.133   0.737  10.318 -0.3997  0.4330  0.4262
13326SOL    HW141419   6.129   0.787  10.400  1.0302 -0.3235  1.0078
13326SOL    HW241420   6.090   0.793  10.254  0.2314  1.9670  1.2696
13327SOL     OW41421   4.400   2.666  11.548 -0.4381  0.0909  0.4442
13327SOL    HW141422   4.312   2.695  11.570  0.0550  0.8495  1.4855
13327SOL    HW241423   4.417   2.595  11.610 -0.0086  0.5104  0.8106
13328SOL     OW41424   4.329   1.030  12.493  0.2166 -0.0295 -0.0358
13328SOL    HW141425   4.316   1.071  12.579  2.2883 -0.3196  0.4870
13328SOL    HW241426   4.251   1.053  12.443 -1.0547  0.1610  1.9192
13329SOL     OW41427   3.796   0.138   0.188 -0.1083  0.6422  0.3758
13329SOL    HW141428   3.846   0.211   0.152 -0.5945  0.6283 -0.3519
13329SOL    HW241429   3.720   0.130   0.130  1.0717 -1.9118 -1.0172
13330SOL     OW41430   6.527   1.023  12.252  0.4137  0.0168  0.1680
13330SOL    HW141431   6.513   1.023  12.157 -0.4797 -0.5053  0.2764
13330SOL    HW241432   6.446   1.060  12.287  1.3543  1.6501  0.6745
13331SOL     OW41433   2.974   1.005  11.356  0.4737  0.1626  0.3995
13331SOL    HW141434   2.992   1.096  11.377 -1.8840  0.7947 -0.0657
13331SOL    HW241435   3.035   0.955  11.411  2.0792  1.9737  0.3748
13332SOL     OW41436   5.204   0.691  11.861  0.1806  0.1267  0.1168
13332SOL    HW141437   5.203   0.596  11.875 -0.9257  0.3933  2.3729
13332SOL    HW241438   5.245   0.703  11.775  0.4613 -2.3691 -0.1603
13333SOL     OW41439   1.501   1.083  12.440  0.4822  0.3637  0.1040
13333SOL    HW141440   1.590   1.063  12.470  0.8987 -0.7377 -1.7233
13333SOL    HW241441   1.454   1.001  12.452  0.0175  0.6170  0.0069
13334SOL     OW41442   5.177   1.872   0.625 -0.2843  0.0679  0.2822
13334SOL    HW141443   5.272   1.864   0.612 -0.2387  0.2061  0.5347
13334SOL    HW241444   5.151   1.941   0.564 -0.1565  0.3275  0.5220
13335SOL     OW41445   5.154   1.147  11.751  0.3948  0.1843 -0.0023
13335SOL    HW141446   5.087   1.215  11.760 -0.0134 -0.0033 -1.4090
13335SOL    HW241447   5.125   1.078  11.811  1.1617  1.4521  1.9502
13336SOL     OW41448   4.963   7.845  11.839  0.0624  0.3806  0.0490
13336SOL    HW141449   4.915   7.928  11.834  0.2936  0.4840 -0.4863
13336SOL    HW241450   5.037   7.864  11.898 -0.0571  0.4698  0.1706
13337SOL     OW41451   4.502   7.590   0.255 -0.0068  0.1392  0.7669
13337SOL    HW141452   4.444   7.514   0.252  0.7566 -0.4201 -0.2466
13337SOL    HW241453   4.448   7.659   0.293 -0.5991 -0.9989  2.1044
13338SOL     OW41454   2.949   1.133  10.979  0.3037 -0.7931  0.3633
13338SOL    HW141455   2.961   1.098  10.891 -3.0887  1.8308 -1.3744
13338SOL    HW241456   2.928   1.056  11.032 -0.2986 -2.1806 -1.7449
13339SOL     OW41457   4.279   7.026   0.076  0.0047  0.7801 -0.4430
13339SOL    HW141458   4.322   6.944   0.102  0.4436  1.6447  1.7948
13339SOL    HW241459   4.241   7.007  -0.010 -1.5163 -2.3625  0.7602
13340SOL     OW41460   5.977   1.727   1.037  0.2779  0.4278 -0.0509
13340SOL    HW141461   6.016   1.643   1.062 -2.4151 -1.1991 -0.8116
13340SOL    HW241462   6.045   1.792   1.056  2.4250 -1.8710  0.7607
13341SOL     OW41463   6.272   7.843   0.436  0.0054 -0.6378 -0.2165
13341SOL    HW141464   6.337   7.823   0.370  1.4090 -0.4384  1.0455
13341SOL    HW241465   6.200   7.883   0.388  0.6686 -1.1430 -1.6852
13342SOL     OW41466   2.268   0.468  11.648 -0.4789  0.4614  0.2054
13342SOL    HW141467   2.339   0.444  11.707 -1.0098  1.7711  1.4264
13342SOL    HW241468   2.259   0.563  11.658 -1.3131  0.5563 -1.1635
13343SOL     OW41469   6.578   2.318  11.358 -0.0522 -0.3830  0.7078
13343SOL    HW141470   6.653   2.310  11.418 -1.3421 -0.0144  2.4610
13343SOL    HW241471   6.536   2.401  11.383 -1.7745 -1.1915  0.6676
13344SOL     OW41472   2.398   1.994  11.071  0.0927 -0.2982  0.0386
13344SOL    HW141473   2.363   1.906  11.087  0.7568 -0.8399 -1.3340
13344SOL    HW241474   2.428   1.991  10.980 -0.6938  1.6249 -0.3311
13345SOL     OW41475   3.942   2.307   0.611 -0.0138 -0.0970  1.2992
13345SOL    HW141476   3.883   2.313   0.536 -0.1415 -0.8425  1.3272
13345SOL    HW241477   4.028   2.326   0.576 -0.1728  0.2851  1.1126
13346SOL     OW41478   4.728   2.968   1.035  0.2489 -0.2700  0.1811
13346SOL    HW141479   4.772   2.989   1.118  0.8980  0.0396 -0.2325
13346SOL    HW241480   4.740   2.874   1.024  1.5415 -0.0524 -0.3393
13347SOL     OW41481   5.485   3.390   1.676 -0.0462  0.1010  0.2106
13347SOL    HW141482   5.419   3.458   1.660 -0.2017 -0.0334  0.2726
13347SOL    HW241483   5.512   3.403   1.767  1.9120  1.7953 -0.5364
13348SOL     OW41484   4.991   3.137   1.785  0.0693  0.4671 -0.0710
13348SOL    HW141485   5.005   3.147   1.879  3.3636 -1.4187 -0.1932
13348SOL    HW241486   4.922   3.072   1.778  1.4732 -1.2611  1.1935
13349SOL     OW41487   4.257   3.787  10.168 -0.5466 -0.3762  0.0312
13349SOL    HW141488   4.325   3.772  10.234  0.1132  2.2808  0.0453
13349SOL    HW241489   4.219   3.700  10.154  0.9447 -1.4604  2.0782
13350SOL     OW41490   3.903   2.456   2.451 -0.3533  0.1277 -0.3503
13350SOL    HW141491   3.902   2.432   2.544 -0.9759  3.3624  0.6127
13350SOL    HW241492   3.842   2.395   2.410 -2.2145  0.3226  1.9136
13351SOL     OW41493   3.531   2.445   1.789 -0.3087  0.2847  0.2773
13351SOL    HW141494   3.440   2.427   1.765  0.0657 -1.4606  0.0347
13351SOL    HW241495   3.548   2.386   1.863 -0.2115  2.6572  2.2622
13352SOL     OW41496   4.577   2.058   0.312  0.4158  0.3040 -0.1508
13352SOL    HW141497   4.524   2.059   0.392  2.0104  0.5764  0.9402
13352SOL    HW241498   4.520   2.098   0.245 -0.7892  0.4727  0.9378
13353SOL     OW41499   3.957   2.572   2.937  0.3700  0.3437 -0.2173
13353SOL    HW141500   3.900   2.526   2.998  1.0391  1.5160  1.3605
13353SOL    HW241501   4.045   2.543   2.961  0.5691 -0.7158 -1.9961
13354SOL     OW41502   4.919   2.463   0.967 -0.7447  0.2973  0.1817
13354SOL    HW141503   4.998   2.479   0.915  0.5300 -2.9660  0.8732
13354SOL    HW241504   4.905   2.544   1.016  0.5498  1.9070 -1.9289
13355SOL     OW41505   5.923   5.504   1.344  0.2550 -0.1790  0.6815
13355SOL    HW141506   5.832   5.494   1.373 -0.0835 -0.6846 -0.5132
13355SOL    HW241507   5.970   5.437   1.393 -0.0305  0.0049  1.2221
13356SOL     OW41508   3.688   2.232   1.122  0.5435  0.1940  0.2891
13356SOL    HW141509   3.600   2.195   1.115  0.7524 -0.4622  0.9661
13356SOL    HW241510   3.695   2.292   1.048  0.4713 -1.6857 -1.3145
13357SOL     OW41511   5.749   2.725   0.639  0.2889 -0.3278  0.7382
13357SOL    HW141512   5.762   2.667   0.564 -3.9067 -0.4669 -0.0987
13357SOL    HW241513   5.791   2.678   0.712  2.0447 -1.5312 -0.9098
13358SOL     OW41514   4.761   3.977   0.868 -0.5923 -0.3119  0.3697
13358SOL    HW141515   4.702   4.001   0.796 -0.0390  3.1838  0.9015
13358SOL    HW241516   4.703   3.941   0.935 -2.0532  1.8950  0.4006
13359SOL     OW41517   5.049   3.219   3.665 -0.7473 -0.2867  0.0214
13359SOL    HW141518   5.091   3.305   3.660  0.2696 -0.7316  0.5243
13359SOL    HW241519   4.963   3.231   3.625 -0.5004  0.8886 -0.1786
13360SOL     OW41520   4.083   4.602   2.129 -0.1419 -0.2286 -0.2362
13360SOL    HW141521   4.103   4.617   2.221 -0.9608 -0.5727  0.0101
13360SOL    HW241522   4.144   4.534   2.101  1.0838  0.8891 -0.3529
13361SOL     OW41523   4.528   2.551   1.168  0.0658  0.3352 -0.1197
13361SOL    HW141524   4.445   2.568   1.123 -0.7351  0.0534  1.1888
13361SOL    HW241525   4.505   2.553   1.261  1.3969 -0.4303  0.2438
13362SOL     OW41526   5.051   5.307   0.642  0.5592  0.3110 -0.2796
13362SOL    HW141527   4.974   5.338   0.594  0.2264 -0.6136 -0.3615
13362SOL    HW241528   5.048   5.354   0.725 -0.0379  0.3732 -0.3277
13363SOL     OW41529   4.228   0.940   0.763 -0.3326 -0.1553  0.2670
13363SOL    HW141530   4.177   0.859   0.759  0.4180 -0.6002 -2.1070
13363SOL    HW241531   4.277   0.941   0.681 -0.0485  2.5593  0.3860
13364SOL     OW41532   3.751   2.754   2.049  0.0033  0.0591  0.2272
13364SOL    HW141533   3.720   2.841   2.024 -1.6725  0.8028  4.0955
13364SOL    HW241534   3.838   2.770   2.087  0.3223 -0.2059 -0.3855
13365SOL     OW41535   3.582   0.693   0.305 -0.0923  0.0089 -0.5437
13365SOL    HW141536   3.596   0.600   0.326 -0.8625 -0.0219 -0.1283
13365SOL    HW241537   3.542   0.730   0.383  2.1939  1.2314  0.1351
13366SOL     OW41538   1.248   4.063   0.178  0.6627  0.4629 -0.2825
13366SOL    HW141539   1.165   4.070   0.130  0.5153  0.6959  0.0020
13366SOL    HW241540   1.316   4.069   0.111  0.4418 -1.0377 -0.6890
13367SOL     OW41541   2.344   2.323   0.111 -0.2877 -0.9657  0.3313
13367SOL    HW141542   2.295   2.397   0.146  0.6278 -0.1681 -0.0510
13367SOL    HW241543   2.433   2.335   0.145  0.4894 -0.4850 -1.7687
13368SOL     OW41544   5.104   2.021   1.786 -0.5101 -0.0196 -0.0955
13368SOL    HW141545   5.066   1.986   1.867 -0.3992 -0.3997 -0.2046
13368SOL    HW241546   5.125   2.112   1.807 -0.4383 -0.1287  0.3196
13369SOL     OW41547   5.087   3.462   0.006 -0.1093  0.3181  0.5967
13369SOL    HW141548   4.995   3.483   0.019 -0.2628 -1.3093  2.5284
13369SOL    HW241549   5.103   3.385   0.060  2.7549  1.3931  1.4789
13370SOL     OW41550   4.290   2.511   1.735  0.5557  0.5534 -0.2139
13370SOL    HW141551   4.362   2.535   1.676  0.5026  0.5231 -0.2913
13370SOL    HW241552   4.333   2.484   1.816  0.7414 -1.3796 -0.9099
13371SOL     OW41553   5.479   4.164   0.708  0.0641  0.2904 -0.1334
13371SOL    HW141554   5.411   4.229   0.726 -0.0446  0.0605  0.3095
13371SOL    HW241555   5.450   4.085   0.754  1.2900  0.5857  1.2485
13372SOL     OW41556   5.158   2.677   0.171  0.6382  0.4796 -0.0528
13372SOL    HW141557   5.182   2.666   0.079  1.0117 -0.6282  0.1709
13372SOL    HW241558   5.067   2.707   0.168  0.4710 -0.0778 -0.7665
13373SOL     OW41559   3.883   1.248   0.511 -0.3275  0.4362  0.0541
13373SOL    HW141560   3.877   1.309   0.437 -0.3993 -1.2873 -1.4510
13373SOL    HW241561   3.917   1.301   0.583  2.4563  1.6597 -1.9565
13374SOL     OW41562   4.148   2.210   0.138 -0.1365  0.0466  0.4693
13374SOL    HW141563   4.067   2.159   0.134  1.5159 -2.8492 -2.6866
13374SOL    HW241564   4.216   2.145   0.160  1.5895  1.8459  0.7429
13375SOL     OW41565   4.149   5.099   0.542  0.7867 -0.7302  0.7879
13375SOL    HW141566   4.087   5.098   0.469  1.0255 -0.9209  0.5869
13375SOL    HW241567   4.162   5.192   0.561  1.7791 -0.6221 -0.3188
13376SOL     OW41568   3.655   1.213   1.358  1.3687 -0.2472 -0.2729
13376SOL    HW141569   3.590   1.186   1.294  2.4818 -1.6294 -0.8793
13376SOL    HW241570   3.605   1.230   1.438  0.3326 -2.2980 -0.4114
13377SOL     OW41571   4.010   4.275   0.929 -0.2015 -0.2894 -0.3840
13377SOL    HW141572   4.103   4.275   0.954 -0.2865  2.1666  0.2121
13377SOL    HW241573   3.994   4.187   0.897  2.3394 -0.7908 -0.5010
13378SOL     OW41574   4.184   3.764   1.236 -0.0070 -0.3712 -0.5294
13378SOL    HW141575   4.245   3.701   1.198  0.5582 -0.8403  1.0744
13378SOL    HW241576   4.215   3.776   1.326 -1.4554  0.4626 -0.1143
13379SOL     OW41577   4.283   2.643   0.833  0.0913  0.5054 -0.3906
13379SOL    HW141578   4.329   2.562   0.810 -1.4047  0.2186 -2.6715
13379SOL    HW241579   4.350   2.711   0.832  0.9638 -0.3453 -0.7818
13380SOL     OW41580   5.550   3.340   0.198 -0.2718 -0.6421  0.1416
13380SOL    HW141581   5.459   3.310   0.193 -0.5850  0.4627 -1.3646
13380SOL    HW241582   5.579   3.312   0.285 -3.0393  1.7486  2.0371
13381SOL     OW41583   4.858   3.471   0.278 -0.6661 -0.1152 -0.2990
13381SOL    HW141584   4.840   3.519   0.198 -2.3506  0.5475  0.4402
13381SOL    HW241585   4.774   3.433   0.304 -0.1818 -0.2661  1.1859
13382SOL     OW41586   4.766   2.682   1.147 -0.1289  0.1372  0.2752
13382SOL    HW141587   4.678   2.653   1.121 -0.2959  1.7929 -1.2424
13382SOL    HW241588   4.754   2.720   1.234 -0.7994 -0.2155  0.3439
13383SOL     OW41589   4.897   3.263   4.231  0.0803 -0.4190 -0.1061
13383SOL    HW141590   4.937   3.348   4.251 -0.9540  0.3015 -0.9897
13383SOL    HW241591   4.962   3.199   4.258  0.3912  0.5966  1.7759
13384SOL     OW41592   4.196   3.290   2.026  0.3150  0.3327 -0.0367
13384SOL    HW141593   4.142   3.235   2.083  1.1644 -0.9462 -0.4099
13384SOL    HW241594   4.148   3.293   1.943 -0.4387  1.3827  0.4135
13385SOL     OW41595   5.959   1.240   1.136  0.0494  0.1260 -0.1746
13385SOL    HW141596   5.971   1.185   1.214 -0.0868  0.0495 -0.2088
13385SOL    HW241597   5.952   1.178   1.064 -0.5638  0.1703 -0.1571
13386SOL     OW41598   5.225   3.489   0.721  0.5464  0.0077 -0.0794
13386SOL    HW141599   5.297   3.468   0.661  1.7926  2.1444  0.5465
13386SOL    HW241600   5.269   3.511   0.803 -0.9893 -0.6795  0.9729
13387SOL     OW41601   5.385   3.390   1.200 -0.7249 -0.4674 -0.0755
13387SOL    HW141602   5.463   3.428   1.241 -0.4549  0.8875 -1.7437
13387SOL    HW241603   5.351   3.330   1.266  2.0551 -1.5976  0.4832
13388SOL     OW41604   2.396   4.704   0.430  0.1733 -0.9792  0.4827
13388SOL    HW141605   2.313   4.683   0.472 -0.2822 -1.6413 -0.6749
13388SOL    HW241606   2.462   4.687   0.496 -0.5663 -1.1432  1.1922
13389SOL     OW41607   3.158   2.322   0.168  0.0054 -0.0757 -0.1827
13389SOL    HW141608   3.244   2.358   0.148  0.4540  0.3583  2.2290
13389SOL    HW241609   3.130   2.280   0.086  2.2003  0.3177 -1.2111
13390SOL     OW41610   5.653   3.049   1.282  0.0571  0.1915  0.1043
13390SOL    HW141611   5.558   3.059   1.273 -0.1096 -0.6691  0.8236
13390SOL    HW241612   5.667   2.955   1.292  0.8431  0.4218  1.5021
13391SOL     OW41613   5.726   4.258   1.215  0.7301 -0.0736  0.1453
13391SOL    HW141614   5.775   4.201   1.156  0.1181 -0.6200  0.1460
13391SOL    HW241615   5.642   4.271   1.171  0.7250  0.5214  0.3244
13392SOL     OW41616   4.561   0.687   0.432  0.4311  0.6316  0.3576
13392SOL    HW141617   4.556   0.593   0.448 -0.0178  0.6993  0.6361
13392SOL    HW241618   4.526   0.727   0.512  0.4519  1.0289  0.1699
13393SOL     OW41619   4.681   2.862   2.440 -0.5956  0.5596  0.4116
13393SOL    HW141620   4.630   2.784   2.462 -0.1009  0.3895  1.0021
13393SOL    HW241621   4.639   2.933   2.488 -0.0597  0.3501  1.2109
13394SOL     OW41622   5.296   2.838  11.261  0.1759  0.2690  0.0154
13394SOL    HW141623   5.271   2.781  11.188  0.0248 -0.2839  0.4916
13394SOL    HW241624   5.213   2.857  11.306  0.6128 -2.2299  2.0861
13395SOL     OW41625   4.484   4.029   1.683 -0.0362 -0.4229  0.3658
13395SOL    HW141626   4.411   4.064   1.733  0.0838  1.4572 -0.6935
13395SOL    HW241627   4.496   3.940   1.716 -1.1181  0.1288  2.3483
13396SOL     OW41628   6.101   3.953   1.319  0.7539 -0.8874  0.3229
13396SOL    HW141629   6.027   4.013   1.332  1.3052 -0.3167  0.9585
13396SOL    HW241630   6.063   3.866   1.324  0.2016 -0.6107  1.3096
13397SOL     OW41631   4.999   1.735   0.777  0.3546 -0.6345  0.4811
13397SOL    HW141632   5.011   1.647   0.741 -1.9924  0.0039 -2.2355
13397SOL    HW241633   5.064   1.788   0.731  0.3162 -0.5712  0.5002
13398SOL     OW41634   6.988   2.557   0.896 -0.0825 -0.4553  0.5955
13398SOL    HW141635   6.992   2.465   0.920  0.9622 -0.4808  0.3405
13398SOL    HW241636   6.986   2.558   0.800  2.8045 -0.1616  0.4669
13399SOL     OW41637   3.911   2.342   2.734 -0.1699  0.2167  0.0133
13399SOL    HW141638   3.921   2.430   2.771 -1.2108  1.5215 -2.5582
13399SOL    HW241639   3.818   2.322   2.744 -0.3827  0.4136 -1.4269
13400SOL     OW41640   3.622   4.025   0.814  0.7122  0.4016 -0.1819
13400SOL    HW141641   3.549   4.072   0.774  0.8268  1.7256  1.0537
13400SOL    HW241642   3.615   4.047   0.907  0.0988 -2.9859  0.7106
13401SOL     OW41643   3.852   2.653   1.731  0.3149  0.5878 -0.2741
13401SOL    HW141644   3.884   2.590   1.795  0.6002  0.5232 -0.4811
13401SOL    HW241645   3.871   2.738   1.769  0.4677  0.5495 -0.2647
13402SOL     OW41646   4.183   3.308   0.214 -0.4404 -0.0001 -0.6461
13402SOL    HW141647   4.151   3.398   0.214 -0.6412 -0.0717 -1.2391
13402SOL    HW241648   4.170   3.277   0.125  0.9395 -0.1546 -0.8229
13403SOL     OW41649   4.293   3.049  12.289  0.0690 -0.4879  0.0149
13403SOL    HW141650   4.325   2.959  12.298  1.1409 -0.0948  0.2445
13403SOL    HW241651   4.365   3.096  12.247 -0.6197  0.1920 -0.4328
13404SOL     OW41652   3.351   0.116   1.180 -0.2402  0.3363  0.2344
13404SOL    HW141653   3.336   0.163   1.262  0.8037  1.3809 -0.1449
13404SOL    HW241654   3.423   0.056   1.200 -0.0453  0.5277  0.1117
13405SOL     OW41655   5.311   3.717   2.700 -0.1400  0.1619  0.4849
13405SOL    HW141656   5.276   3.752   2.618  0.2300  1.4012  0.8175
13405SOL    HW241657   5.382   3.777   2.722  2.1180 -2.1400 -0.0707
13406SOL     OW41658   4.408   3.589   0.448  0.1477  0.2154  0.0605
13406SOL    HW141659   4.402   3.650   0.375 -1.3898 -1.1745 -1.0277
13406SOL    HW241660   4.436   3.643   0.522  0.4121  1.9091 -1.2251
13407SOL     OW41661   3.850   1.285  12.414  0.1240 -0.0157  0.3482
13407SOL    HW141662   3.823   1.211  12.468 -2.0902  1.1440  0.9513
13407SOL    HW241663   3.825   1.259  12.325  0.8847 -0.6287  0.2967
13408SOL     OW41664   3.510   2.037   1.983 -0.3518  0.0665 -0.0820
13408SOL    HW141665   3.435   2.044   2.043 -0.3247  1.6657 -0.1928
13408SOL    HW241666   3.514   2.122   1.940  1.8485  0.1958  0.2927
13409SOL     OW41667   4.024   1.471   0.755  0.2191  0.0586 -0.1817
13409SOL    HW141668   4.002   1.424   0.836 -0.0342 -0.7502 -0.7051
13409SOL    HW241669   4.032   1.562   0.782 -1.7597  0.1098  0.4416
13410SOL     OW41670   4.740   2.353   1.271 -0.0526 -0.0238  0.2448
13410SOL    HW141671   4.776   2.431   1.230 -1.6679  0.1680 -0.9232
13410SOL    HW241672   4.675   2.386   1.334 -1.2695 -0.3869 -0.7738
13411SOL     OW41673   4.842   4.322   0.588  0.2970 -0.7013  0.3845
13411SOL    HW141674   4.783   4.247   0.588 -0.9857  0.2658  0.8540
13411SOL    HW241675   4.823   4.368   0.506  0.7925 -0.6710  0.2818
13412SOL     OW41676   6.183   2.095   1.232  0.2179  0.3579 -0.2037
13412SOL    HW141677   6.134   2.175   1.253  1.1236  0.6922  0.7469
13412SOL    HW241678   6.137   2.026   1.280 -0.8313  0.2126 -1.3840
13413SOL     OW41679   4.743   4.409  11.983  0.0370 -0.2591 -0.3643
13413SOL    HW141680   4.807   4.480  11.988  2.3691 -2.1295 -1.6326
13413SOL    HW241681   4.716   4.395  12.074 -1.1015  2.6412 -0.1456
13414SOL     OW41682   6.424   2.181  11.759  0.1801 -0.0420 -0.0983
13414SOL    HW141683   6.516   2.175  11.731  0.5117  0.1930  0.9124
13414SOL    HW241684   6.394   2.090  11.762  0.1612 -0.0817 -1.1053
13415SOL     OW41685   4.364   2.383   0.759 -0.2899 -0.7086  0.1982
13415SOL    HW141686   4.457   2.384   0.740 -0.3453  0.5530 -0.0723
13415SOL    HW241687   4.323   2.357   0.677 -0.3632  2.1910 -0.7832
13416SOL     OW41688   5.238   4.372  11.871 -0.0452  0.2550 -0.0730
13416SOL    HW141689   5.306   4.426  11.910 -0.1621 -0.2069  0.8028
13416SOL    HW241690   5.217   4.416  11.789  0.9918  0.6459 -0.1508
13417SOL     OW41691   5.143   1.909   0.194 -0.6292 -0.1484 -0.2122
13417SOL    HW141692   5.195   1.829   0.201 -1.2702 -0.5138  0.5226
13417SOL    HW241693   5.202   1.972   0.152  1.6605  0.4617  3.4832
13418SOL     OW41694   4.940   1.558  11.721 -0.4438  0.5022 -0.0736
13418SOL    HW141695   4.950   1.562  11.626  1.3754 -1.4526 -0.0412
13418SOL    HW241696   5.016   1.606  11.756  0.9892 -1.8864  0.3025
13419SOL     OW41697   4.808   2.209   1.712 -0.0069 -0.5305  0.2027
13419SOL    HW141698   4.818   2.128   1.761 -1.8392 -1.5711 -1.0378
13419SOL    HW241699   4.781   2.182   1.625  0.2915  1.3872 -0.5384
13420SOL     OW41700   4.226   4.369   1.181  0.4923 -0.0152 -0.5243
13420SOL    HW141701   4.296   4.353   1.244  1.4262 -0.0946 -1.5370
13420SOL    HW241702   4.206   4.462   1.189  0.7343  0.0119 -0.2349
13421SOL     OW41703   4.557   3.333   1.528  0.8489  0.5905 -0.3287
13421SOL    HW141704   4.468   3.362   1.504 -0.0485  0.2245  2.2980
13421SOL    HW241705   4.545   3.284   1.609  3.3347 -0.5619 -0.5854
13422SOL     OW41706   3.954   3.378   2.317  0.0727  0.2428 -0.2307
13422SOL    HW141707   3.929   3.288   2.298 -0.1612  0.1354  0.5402
13422SOL    HW241708   4.041   3.388   2.280 -0.6762  0.3066 -2.0720
13423SOL     OW41709   3.141   1.501   0.768 -0.1535 -0.1603  0.9136
13423SOL    HW141710   3.158   1.422   0.819  0.3080  0.0976  1.1655
13423SOL    HW241711   3.157   1.475   0.678 -1.4422 -0.7522  0.8268
13424SOL     OW41712   1.989   2.784   1.099 -0.1262  0.2408 -0.5409
13424SOL    HW141713   2.019   2.703   1.057  0.6410 -0.2116  0.8214
13424SOL    HW241714   1.901   2.798   1.063 -0.6269 -1.6793 -0.1884
13425SOL     OW41715   3.697   2.903   0.247  0.2522 -0.0690 -1.0104
13425SOL    HW141716   3.701   2.998   0.232  0.6618 -0.3026 -2.5283
13425SOL    HW241717   3.718   2.865   0.162 -0.0838 -1.5319 -0.4544
13426SOL     OW41718   4.189   2.268   1.659  0.7445 -0.4159  0.6071
13426SOL    HW141719   4.194   2.285   1.565  1.5458  0.4568  0.7942
13426SOL    HW241720   4.237   2.340   1.699 -3.0413  1.6670  1.9298
13427SOL     OW41721   2.581   7.739   0.699 -0.3788 -0.0950  0.2431
13427SOL    HW141722   2.609   7.821   0.740 -0.8728  1.4982 -2.3765
13427SOL    HW241723   2.631   7.671   0.745  0.4952  1.6815  2.1065
13428SOL     OW41724   6.588   3.550   0.989 -0.2159  0.7118 -0.1325
13428SOL    HW141725   6.584   3.538   1.084 -0.8246 -1.5461 -0.3701
13428SOL    HW241726   6.496   3.552   0.962 -0.0606 -0.3607 -0.8063
13429SOL     OW41727   4.026   2.529   2.183  0.3625 -0.2697 -0.5309
13429SOL    HW141728   4.082   2.560   2.112  0.2321  1.9880  0.2671
13429SOL    HW241729   4.013   2.606   2.239 -1.9621 -1.1990  0.3560
13430SOL     OW41730   7.320   1.122   0.678 -0.4419  0.0376 -0.2146
13430SOL    HW141731   7.261   1.193   0.703 -1.6407 -1.4993  1.5867
13430SOL    HW241732   7.344   1.081   0.760  1.5041 -0.7101 -1.0893
13431SOL     OW41733   5.231   2.680   0.624 -0.0407 -0.2985  0.2144
13431SOL    HW141734   5.317   2.711   0.596 -0.0652  0.6082  1.0470
13431SOL    HW241735   5.175   2.757   0.617 -0.5637 -0.6461  0.5334
13432SOL     OW41736   7.514   1.065   0.445  0.1212  0.2618  0.1833
13432SOL    HW141737   7.472   1.088   0.528 -1.5954 -0.2617 -0.5045
13432SOL    HW241738   7.470   1.121   0.380 -0.1128 -0.8950 -0.6797
13433SOL     OW41739   4.766   4.017  10.794  0.3135 -0.8652 -0.3712
13433SOL    HW141740   4.792   3.926  10.808 -1.6958 -1.3538  0.4548
13433SOL    HW241741   4.727   4.044  10.877 -0.3157  0.3104 -1.0326
13434SOL     OW41742   3.535   0.617   1.832 -0.0699 -0.3337 -0.6919
13434SOL    HW141743   3.559   0.648   1.744 -0.2700 -1.7378 -1.2679
13434SOL    HW241744   3.449   0.577   1.820 -1.6015  2.2453  0.8109
13435SOL     OW41745   5.232   2.284   3.080 -0.3330  0.3325 -0.1348
13435SOL    HW141746   5.247   2.237   2.999  2.8527  0.0342  0.4788
13435SOL    HW241747   5.251   2.375   3.059  0.6306  0.2355  0.2727
13436SOL     OW41748   5.148   3.868   1.137  0.1464  0.2641 -0.3505
13436SOL    HW141749   5.069   3.817   1.154  0.2066  0.9917  2.5321
13436SOL    HW241750   5.219   3.815   1.173  0.7553  0.4590 -1.2358
13437SOL     OW41751   5.384   2.898   2.180 -0.2992  0.4267  0.0898
13437SOL    HW141752   5.418   2.978   2.221 -1.3101  1.4882 -1.0672
13437SOL    HW241753   5.398   2.911   2.087 -0.4556 -0.7827 -0.1170
13438SOL     OW41754   5.072   1.648   2.795 -0.6047  0.4474  0.1250
13438SOL    HW141755   4.986   1.667   2.757 -0.0646  2.9377  0.0263
13438SOL    HW241756   5.134   1.665   2.724  0.0631 -0.7235  0.3867
13439SOL     OW41757   4.544   4.264   2.699  0.5962  0.0146 -0.0814
13439SOL    HW141758   4.596   4.287   2.775  0.4724 -3.5764  1.2639
13439SOL    HW241759   4.454   4.282   2.725  0.5904 -0.8189  0.5203
13440SOL     OW41760   4.241   1.572   1.647 -0.5730 -0.4497 -0.2720
13440SOL    HW141761   4.195   1.656   1.645 -2.3561 -1.2750  1.8947
13440SOL    HW241762   4.195   1.517   1.583 -0.6284 -0.3605 -0.3078
13441SOL     OW41763   4.102   2.681   1.633  0.2156  0.5340  0.1865
13441SOL    HW141764   4.015   2.648   1.609  1.0316  0.1570 -2.6864
13441SOL    HW241765   4.155   2.602   1.647  0.5192  0.7209  0.1031
13442SOL     OW41766   4.443   3.200   1.200 -0.3344 -0.1173 -0.7912
13442SOL    HW141767   4.504   3.146   1.250  0.4811  0.6420 -0.9391
13442SOL    HW241768   4.488   3.217   1.117 -0.2532  1.3691 -0.4755
13443SOL     OW41769   4.746   1.469   3.769 -0.2087  0.2155 -0.5898
13443SOL    HW141770   4.835   1.439   3.787 -0.2669  0.3276 -0.0808
13443SOL    HW241771   4.702   1.393   3.731 -0.4646 -0.4921  1.0266
13444SOL     OW41772   5.133   2.471   0.477  0.1719 -0.6258 -0.0239
13444SOL    HW141773   5.164   2.549   0.522  0.5355 -1.1921  0.7365
13444SOL    HW241774   5.045   2.457   0.510  0.6159 -1.3229  0.9320
13445SOL     OW41775   4.473   2.508   1.990 -0.0478 -0.2687 -0.1698
13445SOL    HW141776   4.480   2.581   2.052 -0.2755 -1.8973  1.8662
13445SOL    HW241777   4.561   2.496   1.957  0.2526  0.1114  0.4663
13446SOL     OW41778   3.121   5.981   1.829  0.6671  0.1822 -0.2207
13446SOL    HW141779   3.079   6.032   1.761  2.0150 -0.0441 -1.2743
13446SOL    HW241780   3.112   6.033   1.908  1.4208  1.7675 -1.1343
13447SOL     OW41781   5.038   2.285   1.569  0.1104  0.3459  0.0503
13447SOL    HW141782   5.054   2.198   1.531  0.6788  0.8690 -0.9611
13447SOL    HW241783   4.968   2.271   1.632 -0.7507 -0.6137 -1.0589
13448SOL     OW41784   3.922   2.643   0.113  0.3697  0.0610  0.4384
13448SOL    HW141785   3.886   2.567   0.067 -0.5570  0.7090  0.0664
13448SOL    HW241786   3.847   2.699   0.129  1.0454  0.9151  0.6828
13449SOL     OW41787   6.441   2.686   2.358  0.0106 -0.3259  0.3774
13449SOL    HW141788   6.445   2.737   2.276 -2.7245 -0.3962  0.0959
13449SOL    HW241789   6.526   2.700   2.399  1.8446 -1.0038 -2.8739
13450SOL     OW41790   5.650   3.040  12.154 -0.0621 -0.0811 -0.0127
13450SOL    HW141791   5.617   3.021  12.242 -0.5094  0.1986 -0.1154
13450SOL    HW241792   5.637   3.134  12.143 -0.9775 -0.2688 -0.7581
13451SOL     OW41793   3.722   4.516   1.255  0.1463 -0.3262  0.0471
13451SOL    HW141794   3.632   4.533   1.227  0.1422 -0.9688 -0.3516
13451SOL    HW241795   3.748   4.438   1.206  1.2258  0.3550 -0.5068
13452SOL     OW41796   3.323   3.507   2.339  0.3668  0.0086 -0.6226
13452SOL    HW141797   3.368   3.562   2.404  0.5092  0.5004 -1.1389
13452SOL    HW241798   3.348   3.543   2.255  1.1692 -1.3809 -1.0126
13453SOL     OW41799   6.822   4.005   1.553 -0.0434 -0.2156 -0.7199
13453SOL    HW141800   6.858   3.937   1.610  2.1373 -0.6339 -2.4412
13453SOL    HW241801   6.822   4.084   1.608  1.6908 -0.6659  0.0184
13454SOL     OW41802   5.404   3.843   0.316  0.4211  0.1375 -0.0366
13454SOL    HW141803   5.456   3.767   0.340  2.7016  1.3056 -1.0295
13454SOL    HW241804   5.315   3.820   0.343  1.2600 -2.2894  0.9416
13455SOL     OW41805   4.684   2.609   2.826 -0.1782  0.0223 -0.0752
13455SOL    HW141806   4.610   2.583   2.770 -0.6216  0.4385  0.3138
13455SOL    HW241807   4.738   2.664   2.770 -0.3235 -0.0269 -0.2656
13456SOL     OW41808   4.712   2.031   0.875 -0.2149 -0.8058 -0.4410
13456SOL    HW141809   4.663   2.088   0.934  0.6167  1.8477 -2.1663
13456SOL    HW241810   4.803   2.039   0.905  0.0905 -0.1308 -1.5264
13457SOL     OW41811   4.703   3.228   2.110 -0.5473 -0.3456 -0.2009
13457SOL    HW141812   4.724   3.145   2.152  0.6286 -1.0113 -2.0081
13457SOL    HW241813   4.611   3.221   2.086 -0.6882 -0.7512  0.4551
13458SOL     OW41814   4.762   1.736  11.832 -1.2836  0.2970 -0.0020
13458SOL    HW141815   4.727   1.722  11.920 -1.5506  0.4791 -0.0775
13458SOL    HW241816   4.814   1.658  11.814 -0.6581  0.5758  0.5895
13459SOL     OW41817   2.676   3.786   1.876 -0.6414  0.5743 -0.4626
13459SOL    HW141818   2.706   3.785   1.785 -0.9231 -1.7391 -0.5887
13459SOL    HW241819   2.739   3.731   1.922 -0.1496  2.2080  0.9211
13460SOL     OW41820   3.433   2.697   2.147  0.3023 -0.2157 -0.3762
13460SOL    HW141821   3.517   2.738   2.126  0.7463 -0.9950 -0.1496
13460SOL    HW241822   3.390   2.684   2.062  0.3822  0.2395 -0.4858
13461SOL     OW41823   5.000   3.369   0.892 -0.1191  0.0286 -0.2288
13461SOL    HW141824   4.966   3.282   0.911  2.2655 -0.9331  0.0572
13461SOL    HW241825   5.055   3.357   0.815  1.8733  0.7851  0.9893
13462SOL     OW41826   7.371   4.512   3.814  0.2246  0.3458  0.2454
13462SOL    HW141827   7.421   4.491   3.735  0.3571  0.8948  0.1811
13462SOL    HW241828   7.315   4.435   3.828 -0.5857  0.6893 -0.9928
13463SOL     OW41829   5.814   2.168  12.236  0.6761  0.0225 -0.5674
13463SOL    HW141830   5.843   2.077  12.230  0.0581 -0.1070 -2.8656
13463SOL    HW241831   5.864   2.214  12.168  0.5441  1.2826  0.1486
13464SOL     OW41832   5.207   5.454   0.470  0.7772  0.0797 -0.2548
13464SOL    HW141833   5.160   5.393   0.528  0.3369 -0.9597 -1.6426
13464SOL    HW241834   5.151   5.531   0.466 -1.3947 -1.4300 -2.5101
13465SOL     OW41835   4.643   1.748   2.063  0.0500 -0.0444 -0.4329
13465SOL    HW141836   4.593   1.817   2.021 -0.0591  0.5208  0.5880
13465SOL    HW241837   4.576   1.687   2.096  0.1595 -0.9085 -1.7442
13466SOL     OW41838   4.318   2.713   2.364 -0.0233 -0.1284  0.2132
13466SOL    HW141839   4.280   2.788   2.411  0.7691  0.7571 -0.5060
13466SOL    HW241840   4.253   2.643   2.374 -1.1574  0.8854  0.2699
13467SOL     OW41841   7.501   4.447   3.542 -0.8966  0.3341  0.0170
13467SOL    HW141842   7.524   4.354   3.530 -1.7694  0.3662 -2.6072
13467SOL    HW241843   7.584   4.493   3.529 -0.7892 -0.0093 -0.5897
13468SOL     OW41844   3.747   3.884   1.134  0.1431 -0.3238  0.3092
13468SOL    HW141845   3.703   3.958   1.093 -0.7122  0.1587  2.0229
13468SOL    HW241846   3.780   3.919   1.217  2.3249 -1.1140 -0.1574
13469SOL     OW41847   4.065   2.840   0.352  0.0913  0.1132 -0.6212
13469SOL    HW141848   4.009   2.817   0.427 -0.7063  0.3768 -1.1299
13469SOL    HW241849   4.054   2.934   0.342  1.6578  0.4011  0.0840
13470SOL     OW41850   5.229   0.385  12.206  0.6977 -0.0785 -0.3644
13470SOL    HW141851   5.231   0.443  12.130  1.3150  1.2010  0.5802
13470SOL    HW241852   5.155   0.326  12.190  0.5151  0.4875 -1.7101
13471SOL     OW41853   5.638   4.010   1.543 -0.2055 -0.0731  0.3881
13471SOL    HW141854   5.594   4.006   1.458  1.3661  0.7143 -0.5035
13471SOL    HW241855   5.614   3.927   1.586 -3.8239  0.9466  0.6826
13472SOL     OW41856   4.859   3.147   0.854  0.6149  0.0638 -0.5048
13472SOL    HW141857   4.814   3.096   0.921  1.4849 -0.0833 -0.0178
13472SOL    HW241858   4.924   3.087   0.818 -0.3620 -0.1051 -2.0438
13473SOL     OW41859   5.343   3.619   1.914  0.2018  0.4254 -0.0254
13473SOL    HW141860   5.438   3.614   1.906  0.1558  1.3483 -1.4216
13473SOL    HW241861   5.324   3.572   1.995  1.9668  1.5006  1.0773
13474SOL     OW41862   5.398   3.415   0.940  0.3498 -0.3192  0.1558
13474SOL    HW141863   5.469   3.479   0.936 -1.0987  1.3947  0.5539
13474SOL    HW241864   5.382   3.402   1.033  0.6417 -1.3063  0.0796
13475SOL     OW41865   3.673   3.008   1.946  0.1929 -0.3824 -0.2507
13475SOL    HW141866   3.665   3.055   2.029  1.6893  1.3472 -1.0119
13475SOL    HW241867   3.619   3.058   1.885  0.7044 -0.4532 -0.7647
13476SOL     OW41868   3.014   3.968   1.741 -0.4596 -0.5079 -0.5205
13476SOL    HW141869   3.007   4.062   1.723  1.7694 -0.3196 -0.6667
13476SOL    HW241870   3.060   3.932   1.665  1.6707 -1.1176  0.9719
13477SOL     OW41871   3.945   2.956   1.560 -0.3367 -0.4136 -0.2174
13477SOL    HW141872   3.870   2.946   1.502 -1.5467  0.8519  1.0427
13477SOL    HW241873   3.944   2.877   1.613 -2.2631  0.5571  1.3447
13478SOL     OW41874   4.494   2.761   2.149  0.3387 -0.4172  0.3390
13478SOL    HW141875   4.445   2.725   2.223 -1.3611  0.4636 -0.2909
13478SOL    HW241876   4.571   2.801   2.189 -0.4617 -0.0822  1.6336
13479SOL     OW41877   4.027   2.987   0.703  0.1163 -0.4756 -0.1640
13479SOL    HW141878   4.101   2.959   0.649 -0.7002  0.6852 -1.9847
13479SOL    HW241879   4.068   3.022   0.782  1.3968 -1.5027 -0.3281
13480SOL     OW41880   3.696   1.918   3.202  0.4648 -0.2188  0.0619
13480SOL    HW141881   3.699   1.936   3.296 -0.7060 -0.2019  0.1165
13480SOL    HW241882   3.776   1.957   3.167  0.9417 -0.2808  1.0613
13481SOL     OW41883   5.631   3.363   3.356  0.2987 -0.0123  0.5935
13481SOL    HW141884   5.641   3.301   3.283  1.7661 -0.6688  1.3223
13481SOL    HW241885   5.712   3.414   3.356  0.2272  0.1166  1.6546
13482SOL     OW41886   2.518   4.897  12.194 -0.1252  0.5552  0.4629
13482SOL    HW141887   2.592   4.883  12.253 -0.5823  0.7737  1.0949
13482SOL    HW241888   2.500   4.811  12.156  0.6487  0.5604  0.0559
13483SOL     OW41889   4.775   0.585   0.788  0.2989 -0.6601 -0.4975
13483SOL    HW141890   4.809   0.647   0.853  1.3996 -1.1830 -0.5420
13483SOL    HW241891   4.840   0.587   0.717  1.0241 -2.7461  0.0471
13484SOL     OW41892   1.965   3.494   1.370 -0.5923  0.6170  0.0183
13484SOL    HW141893   1.964   3.550   1.448 -0.4160  1.0955 -0.3197
13484SOL    HW241894   1.886   3.519   1.322 -2.8910 -2.3725  1.9004
13485SOL     OW41895   4.270   2.872   1.745 -0.1951  0.7351 -0.4977
13485SOL    HW141896   4.196   2.819   1.714  1.1238 -0.4459 -1.7974
13485SOL    HW241897   4.282   2.938   1.677  1.0556 -0.2231 -1.2505
13486SOL     OW41898   5.794   4.381   1.448  0.2914 -0.1000 -0.5949
13486SOL    HW141899   5.719   4.339   1.490  0.5127  0.5505  0.4871
13486SOL    HW241900   5.773   4.378   1.355 -1.4045  0.6445 -0.2817
13487SOL     OW41901   3.729   4.149   0.456  0.0221  0.1913  0.2257
13487SOL    HW141902   3.741   4.072   0.511  2.5340  0.9457  0.8370
13487SOL    HW241903   3.714   4.114   0.368  0.1716 -0.9975  0.6611
13488SOL     OW41904   3.722   6.262   1.380  0.2785 -0.6578 -0.4036
13488SOL    HW141905   3.632   6.251   1.348 -0.5831  2.1342  0.7725
13488SOL    HW241906   3.739   6.356   1.371  2.6683 -0.9497  0.5156
13489SOL     OW41907   5.398   3.610  11.047 -0.7858  0.1436 -0.1352
13489SOL    HW141908   5.490   3.591  11.029 -0.3727  1.3869  0.5871
13489SOL    HW241909   5.394   3.620  11.142 -1.8277 -0.6237 -0.0766
13490SOL     OW41910   5.030   4.186  11.107 -0.6278  0.6273  0.2765
13490SOL    HW141911   5.042   4.094  11.129  0.9615  0.7241 -0.0825
13490SOL    HW241912   5.017   4.187  11.012 -1.3774  0.7194  0.3756
13491SOL     OW41913   5.440   3.142   0.829 -0.2078 -0.1725  0.1576
13491SOL    HW141914   5.435   3.220   0.885  1.3410  0.6860 -0.8612
13491SOL    HW241915   5.354   3.139   0.786  0.4552  2.3543 -1.5396
13492SOL     OW41916   5.712   2.904   1.001 -0.5997 -0.3821 -0.4716
13492SOL    HW141917   5.692   2.839   0.934 -0.8058 -0.6246 -0.1728
13492SOL    HW241918   5.644   2.971   0.991 -1.2651 -0.9529  0.2064
13493SOL     OW41919   3.254   3.672   1.404  0.3284 -0.1936 -0.8920
13493SOL    HW141920   3.282   3.590   1.365  1.0819 -0.6542  0.5403
13493SOL    HW241921   3.306   3.680   1.485 -1.1908  0.6609  0.0661
13494SOL     OW41922   3.440   5.252   1.550  0.3585 -0.7706 -0.2426
13494SOL    HW141923   3.415   5.332   1.596  0.7928 -1.1818  0.7287
13494SOL    HW241924   3.461   5.281   1.461 -2.3173 -0.2390 -0.7792
13495SOL     OW41925   3.763   2.400  11.740  0.5010  0.2201 -0.2928
13495SOL    HW141926   3.772   2.477  11.684  0.5695 -0.0215 -0.6127
13495SOL    HW241927   3.832   2.341  11.712  0.0457 -0.2292 -0.4817
13496SOL     OW41928   3.847   3.066   1.090  0.0071 -0.8123 -0.3215
13496SOL    HW141929   3.781   3.088   1.024 -1.6755 -2.0819  0.8629
13496SOL    HW241930   3.864   3.148   1.136  1.0597  0.0520 -2.1342
13497SOL     OW41931   4.898   2.466   0.266 -0.0956  0.2911  0.3292
13497SOL    HW141932   4.990   2.474   0.240 -0.0055 -2.0134 -0.2840
13497SOL    HW241933   4.890   2.375   0.296 -1.9091  0.8047  1.5181
13498SOL     OW41934   1.830   4.348   1.833  0.3382  0.0177 -0.6196
13498SOL    HW141935   1.888   4.421   1.854 -0.7697  0.4524  1.1379
13498SOL    HW241936   1.888   4.274   1.819  1.3615  0.5466  0.6389
13499SOL     OW41937   6.697   1.016   0.215  0.1664 -0.2150  0.2589
13499SOL    HW141938   6.657   0.931   0.234  0.0446 -0.3622 -0.6016
13499SOL    HW241939   6.627   1.066   0.172  0.6212 -0.1571 -0.4351
13500SOL     OW41940   5.785   2.171   1.431  0.0919  0.1308  0.1067
13500SOL    HW141941   5.791   2.079   1.455 -1.7806  0.2907  1.3747
13500SOL    HW241942   5.759   2.216   1.511  3.3336  2.1989  0.1931
13501SOL     OW41943   4.425   3.809   0.271 -0.0527 -0.2758  0.6726
13501SOL    HW141944   4.396   3.875   0.333 -2.0644 -1.7810  1.4379
13501SOL    HW241945   4.378   3.829   0.190 -0.6592 -0.7433  0.9033
13502SOL     OW41946   5.308   4.992   4.735  0.2535 -0.7720  0.4226
13502SOL    HW141947   5.278   4.938   4.662  1.9713 -0.1642 -0.7797
13502SOL    HW241948   5.331   4.929   4.804  0.2076 -1.4484 -0.1675
13503SOL     OW41949   0.162   1.124   0.325 -0.3763  0.8499  0.0974
13503SOL    HW141950   0.243   1.129   0.376 -1.6949  1.0534  2.3094
13503SOL    HW241951   0.191   1.106   0.236  2.0285 -0.8735  1.1086
13504SOL     OW41952   4.492   2.213   1.731  0.4050  0.2629  0.0481
13504SOL    HW141953   4.514   2.281   1.667  0.0241 -0.7049 -1.1573
13504SOL    HW241954   4.523   2.132   1.691 -2.0303 -0.6930 -0.0745
13505SOL     OW41955   5.414   4.915  11.621 -0.4224 -0.3199 -0.4379
13505SOL    HW141956   5.367   4.962  11.551 -0.1946  0.4908 -0.0646
13505SOL    HW241957   5.355   4.918  11.696 -1.1183 -2.1141 -0.8672
13506SOL     OW41958   4.415   1.858   2.702 -0.2440  0.5274  0.7552
13506SOL    HW141959   4.388   1.888   2.615  1.1954  2.1227  0.8069
13506SOL    HW241960   4.483   1.792   2.685  0.9977  1.7913  0.6225
13507SOL     OW41961   6.611   2.705  12.462  0.3837 -0.0957  0.0735
13507SOL    HW141962   6.526   2.705  12.505  0.2583 -2.5640  0.0061
13507SOL    HW241963   6.605   2.633  12.398  1.1115  2.3086 -2.9434
13508SOL     OW41964   4.553   2.734   0.785 -0.0636 -0.1921 -0.5646
13508SOL    HW141965   4.572   2.652   0.829  0.2883  0.8824  1.3824
13508SOL    HW241966   4.604   2.730   0.704 -0.2385 -1.9571 -0.6289
13509SOL     OW41967   5.332   4.065   0.937  0.9059  0.2287 -0.0621
13509SOL    HW141968   5.293   4.151   0.952  1.1967  0.2893  0.3872
13509SOL    HW241969   5.277   4.005   0.988  0.5763  0.1148 -0.5450
13510SOL     OW41970   6.063   3.424   1.265 -0.1913  0.8923 -0.2722
13510SOL    HW141971   6.073   3.372   1.185 -2.9013  1.0673 -0.8210
13510SOL    HW241972   5.999   3.377   1.317  1.4619  0.8447  1.8260
13511SOL     OW41973   4.337   3.485   1.197  0.4630 -0.4631  0.3875
13511SOL    HW141974   4.404   3.420   1.173 -0.8071 -1.5491 -0.3259
13511SOL    HW241975   4.272   3.479   1.127 -1.3079 -0.7708  1.9850
13512SOL     OW41976   3.806   1.452   1.515 -0.3509 -0.4025 -0.0378
13512SOL    HW141977   3.849   1.368   1.502 -0.6350 -0.3948 -1.1694
13512SOL    HW241978   3.750   1.439   1.592 -0.7262 -1.3897 -0.4597
13513SOL     OW41979   4.888   3.759   1.149 -0.4852 -0.5559 -0.6646
13513SOL    HW141980   4.798   3.785   1.129  0.4009  1.5853 -2.2286
13513SOL    HW241981   4.915   3.706   1.074  0.4696  1.3178 -1.7056
13514SOL     OW41982   4.753   2.152   0.607 -0.4808  0.6904 -0.5315
13514SOL    HW141983   4.731   2.110   0.690 -1.9965  0.2018 -1.1544
13514SOL    HW241984   4.784   2.081   0.551 -0.6005  0.8219 -0.7670
13515SOL     OW41985   2.412   3.325  11.225 -0.0479  0.1510 -0.6041
13515SOL    HW141986   2.438   3.283  11.307  0.6472  0.0534 -0.8709
13515SOL    HW241987   2.478   3.392  11.209  0.8240 -0.9770 -1.9583
13516SOL     OW41988   3.559   3.590   1.862 -0.3255 -0.4619  0.3441
13516SOL    HW141989   3.616   3.666   1.854 -0.2040 -0.4370  1.3628
13516SOL    HW241990   3.538   3.567   1.771  2.2126 -1.1575 -0.1713
13517SOL     OW41991   3.628   0.911   2.597 -0.1465  0.1034  0.3079
13517SOL    HW141992   3.623   0.997   2.555 -2.2101 -0.4174 -0.6988
13517SOL    HW241993   3.687   0.860   2.542 -1.1492  0.0766 -0.7890
13518SOL     OW41994   5.085   2.243   2.527  0.0955  0.4174  0.1554
13518SOL    HW141995   5.119   2.318   2.477 -0.8773  1.1799  0.5967
13518SOL    HW241996   5.015   2.207   2.473 -1.5093  1.7415  1.2504
13519SOL     OW41997   3.893   1.972  11.844 -0.2822  0.3040  0.1554
13519SOL    HW141998   3.899   2.051  11.790  0.5622  1.5184  1.9114
13519SOL    HW241999   3.807   1.979  11.886  0.3157  1.0208  1.3119
13520SOL     OW42000   5.134   4.731   0.621  0.1126 -0.0905  0.1171
13520SOL    HW142001   5.208   4.777   0.662 -0.7554  0.4954  1.0883
13520SOL    HW242002   5.102   4.673   0.690 -0.1501 -0.5544 -0.3953
13521SOL     OW42003   3.931   2.078   0.930 -0.1464  0.2762 -0.2063
13521SOL    HW142004   3.843   2.046   0.908  0.1891 -0.2092 -0.8623
13521SOL    HW242005   3.918   2.169   0.955 -0.7412  0.4131 -0.9955
13522SOL     OW42006   5.796   4.330  12.049 -0.1686 -0.3729 -0.4369
13522SOL    HW142007   5.712   4.319  12.003  0.2829  0.4469 -1.5017
13522SOL    HW242008   5.820   4.241  12.075 -1.0484 -0.7024 -0.6885
13523SOL     OW42009   4.177   1.748   2.544 -0.0835  0.5179  0.1989
13523SOL    HW142010   4.242   1.689   2.506 -0.8499 -0.9952  1.1296
13523SOL    HW242011   4.197   1.834   2.507  1.0553 -0.3286 -1.2219
13524SOL     OW42012   6.020   3.882   2.906  0.1588 -0.1710  0.2864
13524SOL    HW142013   5.983   3.833   2.833  1.5377 -1.0289  0.1171
13524SOL    HW242014   6.042   3.815   2.971 -1.4026  0.6129  1.6777
13525SOL     OW42015   2.599   4.967   1.194  0.3958  1.1866 -0.2372
13525SOL    HW142016   2.578   4.924   1.110  1.6451  2.1380 -1.0709
13525SOL    HW242017   2.513   4.984   1.234 -0.1931 -0.2060 -0.8245
13526SOL     OW42018   5.346   2.235   0.050 -0.6732 -0.2442  0.4252
13526SOL    HW142019   5.400   2.167   0.090  0.3059 -0.5718 -1.3535
13526SOL    HW242020   5.303   2.278   0.124  0.6939 -1.0980  1.7762
13527SOL     OW42021   6.030   2.093   0.257  0.0570  0.7369  0.7382
13527SOL    HW142022   5.971   2.117   0.329  0.1734 -1.7018  1.7443
13527SOL    HW242023   6.117   2.091   0.297  0.5891  2.3419 -0.2603
13528SOL     OW42024   2.689   1.907   0.874 -0.2867 -0.0190 -0.0084
13528SOL    HW142025   2.636   1.971   0.921 -1.7271 -0.9991 -0.2507
13528SOL    HW242026   2.690   1.938   0.783  1.0799  0.9494  0.2978
13529SOL     OW42027   6.388   2.920   1.226  0.2094  0.5902  0.2204
13529SOL    HW142028   6.469   2.943   1.271  0.3584  1.1100 -0.2966
13529SOL    HW242029   6.331   2.886   1.295  1.1118 -0.4557  0.4727
13530SOL     OW42030   5.542   2.460   0.535 -0.5212  0.5432  0.0692
13530SOL    HW142031   5.631   2.426   0.548 -1.4072 -1.5269  1.2515
13530SOL    HW242032   5.547   2.552   0.562  1.5865  0.9465 -1.4536
13531SOL     OW42033   3.459   2.828  12.443 -0.4823 -0.3611 -0.6875
13531SOL    HW142034   3.390   2.782  12.490  0.3175 -0.0866  0.8157
13531SOL    HW242035   3.461   2.787  12.356 -3.8271  0.8933 -1.5458
13532SOL     OW42036   6.096   3.075   0.498 -0.5891  0.0648 -0.3809
13532SOL    HW142037   6.028   3.029   0.546 -0.8570 -0.4199 -1.1931
13532SOL    HW242038   6.130   3.140   0.559 -0.3691 -1.0465  0.7291
13533SOL     OW42039   3.876   3.135   0.101 -0.3581  0.0985 -0.6519
13533SOL    HW142040   3.785   3.148   0.127  0.5029  3.4121  1.3306
13533SOL    HW242041   3.897   3.212   0.047  1.2174 -0.6838 -1.2288
13534SOL     OW42042   6.814   3.475  12.445  0.5192 -0.0175 -0.1803
13534SOL    HW142043   6.853   3.422  12.514  0.1086 -0.9739 -0.6568
13534SOL    HW242044   6.787   3.556  12.489 -0.2788 -0.8487  0.9059
13535SOL     OW42045   5.519   4.454  11.935 -0.5459  0.3532  0.4418
13535SOL    HW142046   5.486   4.541  11.914 -0.7187 -0.2400 -2.1082
13535SOL    HW242047   5.563   4.425  11.854 -0.4196 -1.8852  1.2412
13536SOL     OW42048   5.571   3.445  11.239 -0.6791 -0.3622 -0.1393
13536SOL    HW142049   5.592   3.358  11.205 -0.4330 -0.3274 -0.0740
13536SOL    HW242050   5.645   3.467  11.295  0.3010  0.7732 -1.7869
13537SOL     OW42051   3.504   2.191   0.080  0.3601  0.1623  0.2674
13537SOL    HW142052   3.543   2.279   0.080  0.7046  0.0183  0.7124
13537SOL    HW242053   3.480   2.177   0.171  1.3250 -0.6386  0.4166
13538SOL     OW42054   6.161   2.740   3.057  0.0388  0.1918 -0.7989
13538SOL    HW142055   6.101   2.713   2.987 -2.3752 -0.7217  1.4862
13538SOL    HW242056   6.177   2.659   3.106  1.7084  0.8132 -0.2586
13539SOL     OW42057   5.326   2.287   0.528  0.1709  0.1473  0.4248
13539SOL    HW142058   5.368   2.374   0.532  0.3277  0.1056 -0.2551
13539SOL    HW242059   5.236   2.305   0.502  1.2896 -0.1310 -4.6595
13540SOL     OW42060   4.545   1.815   1.150 -0.2264 -0.7053 -0.0343
13540SOL    HW142061   4.477   1.756   1.184 -1.0360  0.7619  0.9838
13540SOL    HW242062   4.507   1.852   1.070 -1.6145  1.7160  1.6172
13541SOL     OW42063   6.824   2.025  12.462  0.1421 -0.0969  0.0642
13541SOL    HW142064   6.794   2.049  12.549 -1.0558 -0.9113 -0.0947
13541SOL    HW242065   6.750   2.047  12.404  0.4870 -0.5998 -0.5865
13542SOL     OW42066   4.228   2.251   0.528 -0.3607  0.1066 -0.1968
13542SOL    HW142067   4.235   2.320   0.462 -0.0754  0.5653  0.3046
13542SOL    HW242068   4.302   2.193   0.509 -1.4256 -0.8912 -1.5292
13543SOL     OW42069   4.588   3.348  12.493  0.0073 -0.5963  0.1901
13543SOL    HW142070   4.573   3.289  12.567  0.2140 -0.7459  0.1105
13543SOL    HW242071   4.594   3.435  12.533 -0.1349 -0.6467  0.3225
13544SOL     OW42072   3.185   1.829   0.013 -0.2897  0.1060 -0.0994
13544SOL    HW142073   3.230   1.806  -0.068 -0.3862  2.6122 -0.9651
13544SOL    HW242074   3.111   1.769   0.018 -0.1122 -0.2868 -1.7128
13545SOL     OW42075   4.899   1.155  12.029 -0.1392  0.1943 -0.4320
13545SOL    HW142076   4.885   1.218  11.957  0.8415  0.1133 -0.6964
13545SOL    HW242077   4.956   1.088  11.992  1.5238  0.8665  0.8084
13546SOL     OW42078   5.540   1.302  11.346  0.8179 -0.8940 -0.7024
13546SOL    HW142079   5.537   1.252  11.427  0.7578 -1.2611 -0.9247
13546SOL    HW242080   5.464   1.360  11.351  0.7393 -1.0081 -0.5522
13547SOL     OW42081   5.431   2.631   1.878  0.4722  0.2393 -0.6326
13547SOL    HW142082   5.349   2.681   1.885  0.1972 -0.2232 -0.4952
13547SOL    HW242083   5.432   2.576   1.957  0.7602  0.0152 -0.7919
13548SOL     OW42084   4.353   2.012   0.094 -0.2324  0.4784  0.0113
13548SOL    HW142085   4.282   1.969   0.048 -0.2397  1.0203 -0.4997
13548SOL    HW242086   4.428   1.954   0.082 -0.9882 -1.0618  2.1572
13549SOL     OW42087   4.866   2.179   0.298  0.3218  0.3164 -0.3810
13549SOL    HW142088   4.778   2.162   0.329  0.7854 -1.1471  0.1925
13549SOL    HW242089   4.870   2.139   0.211  1.0126 -1.4988  0.4349
13550SOL     OW42090   5.846   0.840   1.346 -0.2576 -0.1260 -0.0447
13550SOL    HW142091   5.839   0.846   1.251 -1.7549 -1.1995 -0.0362
13550SOL    HW242092   5.873   0.749   1.362 -1.2572 -0.3201  0.5900
13551SOL     OW42093   3.737   2.614  12.293 -0.0037 -0.4411  0.1710
13551SOL    HW142094   3.792   2.574  12.226 -0.3979 -1.5338  0.4773
13551SOL    HW242095   3.692   2.685  12.248 -0.2313 -1.1280 -0.7228
13552SOL     OW42096   5.391   2.351  12.320  0.2400 -0.1997  0.0070
13552SOL    HW142097   5.442   2.280  12.282 -0.1366 -0.7244  0.4753
13552SOL    HW242098   5.377   2.325  12.411  1.9116  1.4559  0.8104
13553SOL     OW42099   3.472   2.998   1.445 -0.2648 -0.0975 -0.2820
13553SOL    HW142100   3.503   3.002   1.355  2.0406  1.4866  0.4753
13553SOL    HW242101   3.491   2.909   1.473 -0.1027 -0.3174 -1.0700
13554SOL     OW42102   3.570   2.710   3.277 -0.3874 -0.1271 -0.6621
13554SOL    HW142103   3.562   2.797   3.317 -0.3690 -1.4083  2.4523
13554SOL    HW242104   3.489   2.665   3.300 -0.5627 -0.8813 -2.5493
13555SOL     OW42105   3.005   1.839   1.837  0.2509 -0.0135 -1.0776
13555SOL    HW142106   2.976   1.915   1.787  0.1505  0.6354 -0.0603
13555SOL    HW242107   3.070   1.797   1.780  0.7186  1.1370 -1.4347
13556SOL     OW42108   5.635   2.894   4.792 -0.2393  0.1828  0.1709
13556SOL    HW142109   5.683   2.962   4.745  0.1743 -0.8467 -0.9333
13556SOL    HW242110   5.543   2.918   4.783 -0.1871 -0.1709 -1.4725
13557SOL     OW42111   4.497   3.499   2.479 -0.1091 -0.2893 -0.2241
13557SOL    HW142112   4.443   3.423   2.498  0.8865 -1.1283 -0.6278
13557SOL    HW242113   4.472   3.564   2.545 -0.8688 -1.0137  0.2215
13558SOL     OW42114   4.809   2.532  12.417 -0.3044 -0.4606  0.2472
13558SOL    HW142115   4.797   2.436  12.417  0.5378 -0.5775  1.2054
13558SOL    HW242116   4.902   2.545  12.434  0.1938  0.5157 -2.7062
13559SOL     OW42117   4.111   2.825   2.976 -0.1683 -0.5612  0.4414
13559SOL    HW142118   4.076   2.736   2.977 -2.1191  0.1564  0.9026
13559SOL    HW242119   4.038   2.880   3.006  0.5186  1.3464 -1.1272
13560SOL     OW42120   4.057   1.667   4.032  0.6264  0.0329 -0.3000
13560SOL    HW142121   4.121   1.668   4.104  0.5798 -0.4580 -0.2484
13560SOL    HW242122   3.980   1.623   4.069  0.3867  0.3031 -0.4725
13561SOL     OW42123   4.147   2.196   2.704  0.0595 -0.5797  0.2292
13561SOL    HW142124   4.057   2.230   2.708 -0.4174 -1.7966  0.4563
13561SOL    HW242125   4.201   2.265   2.742 -0.6981  0.4261 -0.4639
13562SOL     OW42126   4.574   3.079   3.992 -0.3001 -0.0224 -0.7044
13562SOL    HW142127   4.627   3.033   3.927  1.2171  0.1280  0.3671
13562SOL    HW242128   4.546   3.159   3.949 -0.4121 -0.5220 -1.5808
13563SOL     OW42129   4.653   1.427   4.219  0.0462  0.1075  0.5378
13563SOL    HW142130   4.591   1.462   4.154  0.1388 -2.2015 -0.9062
13563SOL    HW242131   4.599   1.411   4.296 -0.5105  0.9920  0.3476
13564SOL     OW42132   4.900   1.163   1.050  0.3880  0.1165  0.2232
13564SOL    HW142133   4.804   1.156   1.048  0.4592 -1.4759  0.9263
13564SOL    HW242134   4.923   1.197   0.963 -0.8961  2.1057  0.6137
13565SOL     OW42135   5.450   2.866   0.883 -0.3733 -0.1139 -0.0885
13565SOL    HW142136   5.427   2.957   0.866  1.4223  0.2233 -0.9460
13565SOL    HW242137   5.452   2.859   0.978 -0.2201  0.8211 -0.0170
13566SOL     OW42138   1.974   3.222   1.392 -0.0868 -0.1666 -0.2601
13566SOL    HW142139   2.013   3.308   1.374 -1.0794  0.2085 -0.6767
13566SOL    HW242140   1.887   3.242   1.424 -0.2149 -1.0183 -0.0622
13567SOL     OW42141   4.607   2.571   3.458 -0.4566  0.1244 -1.0234
13567SOL    HW142142   4.695   2.594   3.427  0.2148  0.6934  1.1240
13567SOL    HW242143   4.592   2.482   3.423  2.0015 -0.9915  0.4834
13568SOL     OW42144   1.821   2.965   2.481  0.0309 -0.0736 -0.2023
13568SOL    HW142145   1.878   2.934   2.410  0.4506  0.0360  0.0772
13568SOL    HW242146   1.760   3.025   2.439  0.1884 -0.1181 -0.4955
13569SOL     OW42147   3.829   4.033   1.350 -0.1761  0.3345  0.5208
13569SOL    HW142148   3.918   4.064   1.335  0.0567 -0.0314  1.1290
13569SOL    HW242149   3.776   4.113   1.348  0.2845  0.6624  1.0371
13570SOL     OW42150   5.705   2.085   2.224  0.2831  0.5233 -0.0817
13570SOL    HW142151   5.685   2.172   2.192  2.9819  0.9081 -0.9766
13570SOL    HW242152   5.726   2.097   2.317  2.3243  1.1874 -0.5855
13571SOL     OW42153   3.224   1.877   0.680  0.6166  0.3764 -0.5881
13571SOL    HW142154   3.288   1.835   0.622 -2.6625 -0.8319 -3.7390
13571SOL    HW242155   3.204   1.960   0.637 -0.3180  0.4532 -0.0345
13572SOL     OW42156   5.102   3.570   3.334  0.0459 -0.1216 -0.4969
13572SOL    HW142157   5.172   3.514   3.367  0.5113 -0.1064 -1.4170
13572SOL    HW242158   5.148   3.644   3.294 -0.5529  0.7702  0.4189
13573SOL     OW42159   2.488   2.036  12.420 -0.1458  0.0173 -0.6960
13573SOL    HW142160   2.426   2.052  12.349 -1.5474 -1.4599  0.1360
13573SOL    HW242161   2.448   2.077  12.497  2.0814  2.9962 -0.9097
13574SOL     OW42162   5.827   2.876   1.637  0.0838 -0.3728  0.0515
13574SOL    HW142163   5.734   2.857   1.641 -0.1211  0.6661  0.6263
13574SOL    HW242164   5.841   2.916   1.551 -0.2652  0.6772  0.4617
13575SOL     OW42165   5.150   2.270   1.892  0.1608  0.1733 -0.3138
13575SOL    HW142166   5.062   2.302   1.876 -0.7206 -0.6447  2.3169
13575SOL    HW242167   5.193   2.341   1.941  0.0320 -0.4528  0.7412
13576SOL     OW42168   3.017   1.468   3.926  0.5056  0.2808 -0.0467
13576SOL    HW142169   2.962   1.533   3.882 -0.2123 -0.4452 -0.2411
13576SOL    HW242170   2.956   1.400   3.955  1.2964 -0.5610 -0.3000
13577SOL     OW42171   5.625   2.812   3.665 -0.1711  0.0370  0.0522
13577SOL    HW142172   5.632   2.895   3.711  0.1207 -1.0405  2.0675
13577SOL    HW242173   5.553   2.766   3.709 -0.9742 -0.4374 -1.6444
13578SOL     OW42174   6.031   2.411   0.740 -0.2953 -0.1805  0.1010
13578SOL    HW142175   6.053   2.399   0.832 -0.5886 -0.1013  0.1834
13578SOL    HW242176   6.046   2.505   0.724 -2.2651  0.2613  0.6295
13579SOL     OW42177   3.349   2.726   3.817  0.1832 -0.1130 -0.4414
13579SOL    HW142178   3.333   2.809   3.861  0.6328 -0.3694  0.2310
13579SOL    HW242179   3.292   2.663   3.861 -1.2779  0.0993 -1.9295
13580SOL     OW42180   4.249   3.778   2.413  0.1562  0.0720 -0.2366
13580SOL    HW142181   4.231   3.695   2.368  0.8028 -0.0217 -0.3228
13580SOL    HW242182   4.187   3.840   2.374 -1.3736 -0.6777  0.8456
13581SOL     OW42183   4.490   2.668   4.810  0.2489  0.2649 -0.3328
13581SOL    HW142184   4.558   2.732   4.832  0.0829 -0.1757  1.5943
13581SOL    HW242185   4.438   2.711   4.742  0.3976  2.0012  0.6099
13582SOL     OW42186   4.307   1.798   2.196 -0.0421 -0.6101 -0.3979
13582SOL    HW142187   4.226   1.824   2.152 -0.7510 -0.2738  1.0526
13582SOL    HW242188   4.354   1.881   2.211 -1.2172 -0.2994  2.1183
13583SOL     OW42189   6.232   3.454   2.529  0.1947  0.8509  0.2579
13583SOL    HW142190   6.315   3.434   2.573  0.4584 -0.2517 -0.6819
13583SOL    HW242191   6.165   3.437   2.595  0.5551 -1.1688  0.1453
13584SOL     OW42192   7.045   4.319   2.102  0.2737  0.0418 -0.2102
13584SOL    HW142193   7.010   4.230   2.101  0.0779  0.1192 -0.2195
13584SOL    HW242194   6.998   4.364   2.032 -1.7614  0.9821  1.6724
13585SOL     OW42195   5.567   2.161   1.948 -0.1152  0.2057 -1.1018
13585SOL    HW142196   5.543   2.073   1.920 -0.3620  0.0398 -0.3945
13585SOL    HW242197   5.526   2.171   2.034  0.0618  0.9439 -1.0944
13586SOL     OW42198   4.482   1.996   2.207 -0.2310  0.2227 -0.0660
13586SOL    HW142199   4.471   2.067   2.143  0.6943  1.0118  0.6141
13586SOL    HW242200   4.568   1.960   2.188 -0.6505 -0.6551 -0.3286
13587SOL     OW42201   6.594   3.564   1.630 -0.6368 -0.6472 -0.1251
13587SOL    HW142202   6.610   3.639   1.573 -0.8087 -1.1859 -0.9068
13587SOL    HW242203   6.624   3.592   1.717 -0.1161  0.0927 -0.5361
13588SOL     OW42204   4.498   2.053   1.306  0.0426  1.0644  0.0148
13588SOL    HW142205   4.520   1.997   1.232  0.8063  0.0043  0.9956
13588SOL    HW242206   4.412   2.088   1.286 -0.5347 -0.6095 -0.5703
13589SOL     OW42207   4.828   1.370   4.803  0.3862  0.3511 -0.0080
13589SOL    HW142208   4.793   1.338   4.720  0.6532  0.4454 -0.1544
13589SOL    HW242209   4.817   1.465   4.799  2.5413  0.6035 -0.9255
13590SOL     OW42210   3.630   0.778   3.863 -0.2134  0.4572 -0.0660
13590SOL    HW142211   3.616   0.872   3.851 -0.0520  0.2530 -2.3498
13590SOL    HW242212   3.549   0.737   3.833  0.7624 -0.2134 -1.9552
13591SOL     OW42213   4.377   1.806   3.034  0.4988  0.1184  0.1318
13591SOL    HW142214   4.367   1.901   3.041  0.4789  0.1762 -0.5501
13591SOL    HW242215   4.469   1.794   3.011  0.3487  0.0230 -0.4506
13592SOL     OW42216   5.725   2.788   2.837  0.0390 -0.3447 -0.3419
13592SOL    HW142217   5.673   2.801   2.757  0.3826  0.5566 -0.4322
13592SOL    HW242218   5.664   2.749   2.899 -0.0729 -1.6920 -1.2336
13593SOL     OW42219   3.151   2.071   1.071  0.4792  0.8165  0.1063
13593SOL    HW142220   3.085   2.102   1.133  0.1166  2.5656 -1.0826
13593SOL    HW242221   3.126   2.111   0.987  0.9885 -1.3917 -1.1876
13594SOL     OW42222   4.594   1.933  12.458  0.1675 -0.1714  0.1501
13594SOL    HW142223   4.582   1.918  12.364 -2.5933  0.4311  0.3085
13594SOL    HW242224   4.562   1.852  12.499 -1.7472  0.7438  0.5971
13595SOL     OW42225   4.248   1.640   4.224 -0.0729  0.0108  0.3204
13595SOL    HW142226   4.285   1.722   4.254  0.5619 -0.0159 -0.3634
13595SOL    HW242227   4.220   1.595   4.304 -1.5816  1.4090  0.6327
13596SOL     OW42228   6.608   3.491   1.249 -0.2042 -0.4334 -0.2083
13596SOL    HW142229   6.655   3.493   1.333  0.7002 -1.4573 -0.6717
13596SOL    HW242230   6.522   3.529   1.269 -0.4800 -1.8460  1.4864
13597SOL     OW42231   5.249   2.465   1.512  0.3058 -0.1880  0.0677
13597SOL    HW142232   5.307   2.444   1.439 -0.1759  0.4916 -0.5271
13597SOL    HW242233   5.193   2.388   1.521  0.7666 -0.5211  0.1298
13598SOL     OW42234   3.280   2.699   3.069  0.6450 -0.4652  0.8702
13598SOL    HW142235   3.335   2.769   3.033 -1.3298  0.5282 -0.3747
13598SOL    HW242236   3.216   2.680   3.000 -0.4853 -1.6593  2.1860
13599SOL     OW42237   4.976   3.201   2.052 -0.1634  0.0712 -1.1023
13599SOL    HW142238   4.895   3.237   2.090  1.4532  1.5148  1.2379
13599SOL    HW242239   4.998   3.128   2.109 -0.4838 -1.2385 -2.5781
13600SOL     OW42240   6.249   2.377   0.269 -0.2256 -0.2340  0.2282
13600SOL    HW142241   6.247   2.471   0.290  1.4125 -0.4471  1.5200
13600SOL    HW242242   6.208   2.335   0.345  1.3869 -0.6936  0.8965
13601SOL     OW42243   5.626   3.079   4.403  0.0792 -0.0988 -0.1428
13601SOL    HW142244   5.660   3.010   4.347 -0.3321 -1.0372  0.7185
13601SOL    HW242245   5.537   3.052   4.423  0.0274  0.5044  0.4993
13602SOL     OW42246   4.318   4.444   2.041  0.3707  0.4660  0.4393
13602SOL    HW142247   4.401   4.399   2.026  0.4242  0.7538 -0.1606
13602SOL    HW242248   4.253   4.374   2.049  0.3012  0.2721 -1.4143
13603SOL     OW42249   5.250   0.874   4.918  0.2307  0.8366 -0.8906
13603SOL    HW142250   5.173   0.898   4.867 -1.2624  0.8897  1.2685
13603SOL    HW242251   5.299   0.815   4.861 -1.4222  0.7673 -2.3114
13604SOL     OW42252   5.318   3.701   2.992  0.3102 -0.0679  0.4406
13604SOL    HW142253   5.380   3.764   3.028  0.7086  0.6990 -1.4815
13604SOL    HW242254   5.328   3.623   3.048  1.6209  0.6866  1.3081
13605SOL     OW42255   4.674   3.000   1.723  0.0711 -0.3133 -0.5427
13605SOL    HW142256   4.618   3.073   1.697 -0.8028 -0.6386  0.3555
13605SOL    HW242257   4.614   2.925   1.730  0.6633 -0.7422  0.1415
13606SOL     OW42258   2.573   1.804   2.229 -0.1354  0.2554  0.8039
13606SOL    HW142259   2.584   1.717   2.191  0.3880 -0.2945  2.1846
13606SOL    HW242260   2.478   1.812   2.243 -0.3084  0.3508 -0.2705
13607SOL     OW42261   4.291   2.604   2.715  0.3856 -0.1966 -0.3580
13607SOL    HW142262   4.346   2.678   2.693  1.1005 -0.7069 -0.3088
13607SOL    HW242263   4.209   2.620   2.668  0.0089  1.3172  0.7577
13608SOL     OW42264   4.996   2.921   3.500  0.3004  0.1365 -0.2581
13608SOL    HW142265   5.087   2.948   3.505 -0.7015  3.7714  3.2484
13608SOL    HW242266   4.963   2.964   3.421  1.2998 -0.4399 -1.0277
13609SOL     OW42267   4.343   2.834   4.342 -0.6995 -0.3436  0.0478
13609SOL    HW142268   4.360   2.857   4.251 -1.5591  0.5254  0.0835
13609SOL    HW242269   4.298   2.911   4.378  0.3081 -0.3586  1.4165
13610SOL     OW42270   5.326   2.503   3.409 -0.5371  0.3273  0.2499
13610SOL    HW142271   5.287   2.574   3.357  0.5949  0.9986  0.2675
13610SOL    HW242272   5.278   2.505   3.492 -0.8070  0.8083  0.0884
13611SOL     OW42273   5.241   1.163   3.473  0.3752 -0.1532 -0.2222
13611SOL    HW142274   5.276   1.169   3.384 -1.8735  0.2447 -1.1581
13611SOL    HW242275   5.198   1.247   3.488  1.8039  0.2933  1.7909
13612SOL     OW42276   4.242   2.025   1.787 -0.2863  0.0262  0.2554
13612SOL    HW142277   4.256   2.108   1.742 -2.1202 -0.3759 -1.1964
13612SOL    HW242278   4.228   2.049   1.879  0.4893  1.1693  0.0879
13613SOL     OW42279   4.364   2.395   5.342  0.3909 -0.7062 -0.6666
13613SOL    HW142280   4.425   2.466   5.360  0.1180 -0.6525  0.1049
13613SOL    HW242281   4.339   2.407   5.250  2.0902 -1.1741 -1.2338
13614SOL     OW42282   4.795   3.710   3.715  0.7627 -0.1947 -0.1105
13614SOL    HW142283   4.754   3.777   3.661 -0.4757 -0.8382 -0.0118
13614SOL    HW242284   4.888   3.714   3.692  0.4534  0.3892 -1.3648
13615SOL     OW42285   3.060   3.023   1.369 -0.0303 -0.1351  0.1359
13615SOL    HW142286   3.101   2.995   1.451 -0.9309  0.7344  0.9242
13615SOL    HW242287   3.006   2.949   1.342  0.6922 -0.6304  0.0274
13616SOL     OW42288   5.838   2.354   2.681  0.2165 -0.6970 -0.4092
13616SOL    HW142289   5.838   2.369   2.776  0.7899 -0.8836 -0.3754
13616SOL    HW242290   5.929   2.331   2.661  0.7578  1.9600 -1.4161
13617SOL     OW42291   4.556   3.767   1.775 -0.1615  0.4068 -0.4854
13617SOL    HW142292   4.485   3.705   1.791  1.8730 -2.1579 -0.6769
13617SOL    HW242293   4.600   3.774   1.860  0.9685 -0.2756 -0.9956
13618SOL     OW42294   3.843   2.959   2.420 -0.4857  0.0825 -0.2647
13618SOL    HW142295   3.811   2.998   2.501  0.7536  0.6168 -0.0073
13618SOL    HW242296   3.765   2.925   2.377 -1.2703  0.5740  0.7368
13619SOL     OW42297   5.215   2.723   3.293  0.4838 -0.3824  0.2144
13619SOL    HW142298   5.140   2.748   3.238 -0.7224  0.2603  2.0740
13619SOL    HW242299   5.239   2.803   3.338  1.3902 -0.9247  0.7152
13620SOL     OW42300   5.982   3.128   2.493 -0.0325  0.1547  0.5527
13620SOL    HW142301   5.979   3.126   2.589 -0.4118  1.1039  0.5663
13620SOL    HW242302   6.043   3.198   2.472  1.3463 -1.1323  0.0861
13621SOL     OW42303   4.538   2.794   1.645  0.3887  0.2892  0.3572
13621SOL    HW142304   4.447   2.802   1.673 -0.0546  2.3238 -1.3917
13621SOL    HW242305   4.543   2.707   1.605 -1.0338  0.4252 -0.1942
13622SOL     OW42306   6.715   1.940   1.184  0.4133  0.0284 -0.4389
13622SOL    HW142307   6.797   1.909   1.146  0.5377 -0.3715  0.1424
13622SOL    HW242308   6.685   2.007   1.124  1.2238  0.2561 -0.6054
13623SOL     OW42309   5.107   1.844   1.582 -0.1232 -0.1996  0.0124
13623SOL    HW142310   5.014   1.821   1.583 -0.2781  0.4443  0.5231
13623SOL    HW242311   5.112   1.927   1.630  0.8473 -0.7114  0.8179
13624SOL     OW42312   3.439   1.828   1.684  0.3254  0.2832 -0.6974
13624SOL    HW142313   3.483   1.789   1.609  0.1861  0.8340 -1.0705
13624SOL    HW242314   3.405   1.911   1.651  0.6863  0.7518  0.1130
13625SOL     OW42315   4.183   2.075   2.043  0.2433  0.4591  0.3875
13625SOL    HW142316   4.154   2.134   2.113  0.3244  1.0878 -0.1080
13625SOL    HW242317   4.107   2.019   2.026  0.3922 -0.0756  1.3501
13626SOL     OW42318   3.940   2.172   3.368 -0.0437 -0.3457  0.1809
13626SOL    HW142319   3.908   2.099   3.315  0.4853 -0.6194  0.2317
13626SOL    HW242320   3.887   2.168   3.448  0.9876 -1.6162  0.8357
13627SOL     OW42321   5.138   3.916   2.449 -0.1955 -0.1569  0.0297
13627SOL    HW142322   5.048   3.916   2.415 -0.1033  0.0220 -0.2167
13627SOL    HW242323   5.134   3.973   2.526 -0.3744 -0.4527  0.2401
13628SOL     OW42324   5.690   4.472   2.871 -0.1485  0.1115 -0.5296
13628SOL    HW142325   5.620   4.498   2.810  0.3521  0.4254 -0.9747
13628SOL    HW242326   5.764   4.451   2.814  0.6874  1.4826  0.0176
13629SOL     OW42327   5.693   3.389   1.516 -0.5714 -0.2729 -0.0796
13629SOL    HW142328   5.654   3.461   1.466 -0.5568 -1.2033 -1.5085
13629SOL    HW242329   5.623   3.359   1.574 -1.2228 -0.3857 -0.9077
13630SOL     OW42330   5.008   2.600   2.877 -0.2482  0.4079 -0.1263
13630SOL    HW142331   5.091   2.568   2.911 -1.4722 -0.2162  2.5692
13630SOL    HW242332   5.017   2.695   2.876  0.8043  0.3133 -0.8300
13631SOL     OW42333   4.884   3.658   1.628 -0.0724 -0.0334 -0.1629
13631SOL    HW142334   4.920   3.617   1.549 -0.8443 -0.1743 -0.4554
13631SOL    HW242335   4.889   3.589   1.695  1.1506  0.2836  0.0861
13632SOL     OW42336   3.673   4.587   2.163 -0.3817  0.5458 -0.0339
13632SOL    HW142337   3.582   4.608   2.184 -0.2288  0.8766  0.2991
13632SOL    HW242338   3.716   4.671   2.156  0.4186  0.3739  2.1290
13633SOL     OW42339   6.588   1.535   2.156 -0.1385 -0.0773 -0.3318
13633SOL    HW142340   6.598   1.467   2.223 -1.0806 -1.6491 -1.6938
13633SOL    HW242341   6.504   1.577   2.176  0.2223  0.3848  0.2389
13634SOL     OW42342   2.740   1.837   1.883 -0.1781 -0.2172 -0.4882
13634SOL    HW142343   2.703   1.916   1.922 -1.4050 -0.7535 -0.5139
13634SOL    HW242344   2.829   1.861   1.859 -0.4363  1.0640 -0.2183
13635SOL     OW42345   3.939   2.857   3.598 -0.3186  0.9856  0.1837
13635SOL    HW142346   3.989   2.928   3.559 -0.7337  0.7197 -0.8480
13635SOL    HW242347   3.998   2.781   3.596 -0.5882  0.7946 -0.5830
13636SOL     OW42348   3.409   1.656   4.888  0.4854  0.5682  0.1360
13636SOL    HW142349   3.407   1.710   4.809 -1.1478 -1.6157 -1.4452
13636SOL    HW242350   3.324   1.671   4.929  0.8563  0.7804  0.8371
13637SOL     OW42351   5.417   3.661   4.179 -0.7529 -0.0866 -0.3666
13637SOL    HW142352   5.467   3.738   4.207  0.9054 -0.9029 -0.9479
13637SOL    HW242353   5.370   3.632   4.258 -1.1489  1.3083 -0.0683
13638SOL     OW42354   4.439   1.836   1.844  0.3239  0.4167 -0.9801
13638SOL    HW142355   4.486   1.869   1.767 -1.9753  0.1065 -2.6206
13638SOL    HW242356   4.363   1.893   1.852  0.6713  0.6638  1.3606
13639SOL     OW42357   4.871   1.784   2.193 -0.1640  0.3481  0.2517
13639SOL    HW142358   4.792   1.748   2.154  1.1829 -2.4317 -0.1669
13639SOL    HW242359   4.840   1.849   2.256 -2.7691 -0.9637  0.4374
13640SOL     OW42360   5.499   3.026   2.981 -0.1350  0.1843 -0.5133
13640SOL    HW142361   5.508   3.062   2.893  0.0400  0.0118 -0.5661
13640SOL    HW242362   5.539   3.092   3.038 -0.3833  0.3650 -0.5476
13641SOL     OW42363   4.479   2.140   4.137  0.2190 -0.2662 -0.0167
13641SOL    HW142364   4.449   2.095   4.057 -2.8917  0.2501  0.7275
13641SOL    HW242365   4.525   2.217   4.105 -1.6395  0.3501 -1.4158
13642SOL     OW42366   4.698   3.092   3.046 -0.4891 -0.3021  0.1753
13642SOL    HW142367   4.760   3.085   3.119 -1.0999 -2.6059  0.5330
13642SOL    HW242368   4.615   3.062   3.081 -1.1077 -0.1925 -1.1214
13643SOL     OW42369   4.931   2.273   4.552  0.4444 -0.0379  0.5552
13643SOL    HW142370   4.998   2.342   4.547  0.5211 -0.0100  1.7380
13643SOL    HW242371   4.865   2.299   4.487  1.3571  0.1697 -0.3092
13644SOL     OW42372   2.444   3.345   3.739  0.6359  0.0258 -0.2360
13644SOL    HW142373   2.448   3.434   3.705 -1.4796  0.4575  0.5512
13644SOL    HW242374   2.427   3.291   3.661 -1.3141  0.6951 -0.3154
13645SOL     OW42375   4.440   2.110   2.841  0.1302 -0.0695  0.4825
13645SOL    HW142376   4.416   2.181   2.781 -0.6509 -0.6265  0.1221
13645SOL    HW242377   4.450   2.033   2.784  0.4706 -0.3571  0.9305
13646SOL     OW42378   5.190   3.451   2.094 -0.1706  1.1096 -0.0070
13646SOL    HW142379   5.209   3.469   2.186  0.7602 -2.7775  0.7431
13646SOL    HW242380   5.105   3.406   2.095 -0.5393  1.7385 -1.1641
13647SOL     OW42381   5.004   3.408   2.477 -0.2693  0.3993  0.7745
13647SOL    HW142382   5.049   3.341   2.529  0.2300  1.1251  1.2869
13647SOL    HW242383   4.913   3.405   2.507 -0.2702 -0.0983  0.7381
13648SOL     OW42384   4.010   3.667   2.051  0.1698  0.2309  0.3379
13648SOL    HW142385   4.098   3.673   2.089 -0.0609 -0.9436  1.1076
13648SOL    HW242386   4.011   3.585   2.002 -0.6749 -0.0934  0.8532
13649SOL     OW42387   5.153   2.070   3.717 -0.2286 -0.2858 -0.4954
13649SOL    HW142388   5.080   2.061   3.656 -0.0038 -0.2073 -0.7748
13649SOL    HW242389   5.116   2.117   3.791 -0.0073  1.3757 -1.4043
13650SOL     OW42390   3.492   1.404   5.212 -0.0831 -0.1288  0.2426
13650SOL    HW142391   3.551   1.420   5.139 -1.4738 -0.1647 -0.9345
13650SOL    HW242392   3.535   1.443   5.287  0.6961  1.2588 -0.8890
13651SOL     OW42393   4.198   1.789   4.549 -0.3275  0.5561 -0.2676
13651SOL    HW142394   4.224   1.846   4.477  1.3478 -1.7199 -1.6139
13651SOL    HW242395   4.131   1.732   4.511 -0.4308  0.2221  0.3961
13652SOL     OW42396   5.235   1.201   5.419 -0.6247 -0.0321 -0.4799
13652SOL    HW142397   5.247   1.289   5.385 -2.3525  0.4459  0.0756
13652SOL    HW242398   5.315   1.184   5.469 -1.3008  2.2653  1.5716
13653SOL     OW42399   3.915   2.420   3.695  0.2397  0.1576 -0.4833
13653SOL    HW142400   3.993   2.466   3.662 -0.1662  0.7698 -0.6190
13653SOL    HW242401   3.948   2.337   3.727  1.1294  0.8815  0.5463
13654SOL     OW42402   5.505   3.899   2.790 -0.1751 -0.0416 -0.5077
13654SOL    HW142403   5.577   3.917   2.731  0.2739 -0.1632 -0.0087
13654SOL    HW242404   5.488   3.982   2.834  0.3679 -0.2500  0.1285
13655SOL     OW42405   4.159   0.164   2.381  0.2249 -0.5623 -0.2839
13655SOL    HW142406   4.143   0.070   2.375 -0.8160 -0.5159  1.4166
13655SOL    HW242407   4.095   0.203   2.321 -0.2401 -0.8587  0.0206
13656SOL     OW42408   2.506   1.916   3.068 -0.3173  0.2513 -0.0944
13656SOL    HW142409   2.565   1.912   2.993 -0.4267  0.0516 -0.1711
13656SOL    HW242410   2.493   2.009   3.083 -1.0477  0.2929 -0.9220
13657SOL     OW42411   3.900   3.160   3.291  0.3974  0.3898  0.3800
13657SOL    HW142412   3.936   3.143   3.378 -0.4046  1.8158  1.0081
13657SOL    HW242413   3.930   3.247   3.268  0.1296  0.2547 -0.5410
13658SOL     OW42414   6.016   3.302   4.107 -0.0047  0.2997  0.2103
13658SOL    HW142415   6.001   3.218   4.065  0.9727  1.0387 -1.7749
13658SOL    HW242416   5.936   3.320   4.156 -2.1460  0.2323 -2.9414
13659SOL     OW42417   5.808   1.638   2.530 -0.3994  0.2630 -0.1671
13659SOL    HW142418   5.807   1.545   2.549  0.5292  0.3175  0.2068
13659SOL    HW242419   5.735   1.674   2.581  0.4482  0.0200  1.2596
13660SOL     OW42420   4.018   1.044   0.929 -0.0884  0.0549 -0.3535
13660SOL    HW142421   4.092   1.038   0.867 -1.0456  0.1218 -1.5459
13660SOL    HW242422   3.946   0.999   0.884 -1.2358  1.4001  0.0707
13661SOL     OW42423   4.599   2.324   2.997  0.1577 -0.7705 -0.5509
13661SOL    HW142424   4.542   2.285   2.931  1.2767 -0.2710 -1.8577
13661SOL    HW242425   4.540   2.377   3.051 -0.8319 -1.4415 -0.9397
13662SOL     OW42426   4.203   2.320   3.483  0.3550 -0.2082 -0.2430
13662SOL    HW142427   4.141   2.290   3.549 -0.4366  1.1794 -0.3174
13662SOL    HW242428   4.235   2.240   3.442 -1.8031 -0.9723 -0.5635
13663SOL     OW42429   4.908   2.280   3.129 -0.5133  0.3239 -0.4880
13663SOL    HW142430   4.880   2.254   3.217 -0.5716  2.4567  0.1987
13663SOL    HW242431   4.982   2.223   3.109 -0.7479 -0.4622  0.7763
13664SOL     OW42432   5.122   3.769   3.866 -0.0437  0.5638 -0.7215
13664SOL    HW142433   5.088   3.809   3.786  0.2794  0.3802 -0.9518
13664SOL    HW242434   5.094   3.677   3.861  0.0932  0.5198 -0.6900
13665SOL     OW42435   2.379   1.572   4.801  0.2067  0.1582 -0.0192
13665SOL    HW142436   2.454   1.596   4.855  0.2700  0.3176 -0.1774
13665SOL    HW242437   2.416   1.550   4.716  0.2624 -1.5542  0.4195
13666SOL     OW42438   4.677   2.057   3.069 -0.2777  0.0135 -0.6624
13666SOL    HW142439   4.614   2.040   2.998 -0.6651  1.0478 -0.5841
13666SOL    HW242440   4.665   2.149   3.090 -2.3270 -0.8514  2.7876
13667SOL     OW42441   4.132   2.607   1.948 -0.5721  0.0817  0.4743
13667SOL    HW142442   4.112   2.517   1.922 -0.8716  0.2411  0.1558
13667SOL    HW242443   4.177   2.645   1.873 -0.6447  0.2671  0.5220
13668SOL     OW42444   2.527   2.636   2.279  0.0254  0.0849 -0.2065
13668SOL    HW142445   2.484   2.721   2.277  0.1328  0.1288 -0.8788
13668SOL    HW242446   2.567   2.627   2.192  1.5556  0.1419  0.4604
13669SOL     OW42447   4.360   1.307   3.322  0.8080 -0.1373  0.1600
13669SOL    HW142448   4.438   1.353   3.290 -0.4394  0.8908 -1.5734
13669SOL    HW242449   4.379   1.215   3.306  1.2484  0.1776 -1.2707
13670SOL     OW42450   5.306   2.320   5.450  0.1327  0.4062 -0.1864
13670SOL    HW142451   5.348   2.405   5.461  0.5515  0.2373 -0.4824
13670SOL    HW242452   5.347   2.264   5.516  0.9913  0.0121 -1.0427
13671SOL     OW42453   4.566   2.627   2.488 -0.8340  0.1686  0.5350
13671SOL    HW142454   4.477   2.639   2.453  0.0101 -1.2232 -2.4769
13671SOL    HW242455   4.591   2.539   2.460  2.0663  1.0985 -0.1731
13672SOL     OW42456   3.471   2.969   2.604  0.6070  0.0295 -0.2150
13672SOL    HW142457   3.505   2.967   2.514 -1.2972  0.5639 -0.9996
13672SOL    HW242458   3.441   2.880   2.621  0.7493 -0.0147 -0.1929
13673SOL     OW42459   4.647   2.935   4.693 -0.3831 -0.5721  0.0194
13673SOL    HW142460   4.578   2.998   4.671 -1.2051 -1.9206 -1.4965
13673SOL    HW242461   4.702   2.981   4.756 -0.2093  2.1402 -1.9225
13674SOL     OW42462   4.909   2.350   2.802 -0.0778 -0.3362 -0.3091
13674SOL    HW142463   5.000   2.325   2.790  0.6826  1.6793  0.7619
13674SOL    HW242464   4.885   2.391   2.718  0.9900  1.7331  0.3139
13675SOL     OW42465   3.223   2.227   3.091 -0.2707 -0.2918 -0.5014
13675SOL    HW142466   3.159   2.184   3.148 -0.4848 -1.3164 -1.4770
13675SOL    HW242467   3.301   2.173   3.098 -0.4974 -0.7920 -1.6419
13676SOL     OW42468   5.269   2.733   5.606  0.3159 -0.1436  0.4612
13676SOL    HW142469   5.253   2.651   5.652 -3.0247 -1.0860 -2.0007
13676SOL    HW242470   5.207   2.795   5.643 -1.0470 -0.3734 -1.3065
13677SOL     OW42471   6.076   2.526   3.199 -0.0974 -0.8065  0.5592
13677SOL    HW142472   6.110   2.527   3.288  1.9968  1.5071 -0.1631
13677SOL    HW242473   6.125   2.457   3.154  0.2317 -0.6588  0.6971
13678SOL     OW42474   5.527   2.340   3.285  0.0320  0.1578  0.0774
13678SOL    HW142475   5.524   2.373   3.196 -0.7804 -1.0997 -0.3823
13678SOL    HW242476   5.477   2.403   3.336 -1.8238 -0.4811 -0.8484
13679SOL     OW42477   4.556   2.306   3.339 -0.7145 -0.3701 -0.2407
13679SOL    HW142478   4.636   2.253   3.337 -0.0031  0.6980 -2.2418
13679SOL    HW242479   4.487   2.246   3.311 -0.8026 -1.4750  2.0968
13680SOL     OW42480   5.301   2.959   3.448 -0.5143 -0.4966 -0.0859
13680SOL    HW142481   5.320   2.964   3.542 -1.5906  0.9523  0.1046
13680SOL    HW242482   5.385   2.972   3.405 -0.1917  0.0141  0.6805
13681SOL     OW42483   4.366   2.521   3.593 -0.3489  0.0906 -0.1427
13681SOL    HW142484   4.449   2.554   3.558 -0.4067 -0.1390 -0.5050
13681SOL    HW242485   4.360   2.431   3.559 -1.1614  0.3941 -0.8341
13682SOL     OW42486   3.433   3.849   2.371 -0.2322  0.2720 -0.3005
13682SOL    HW142487   3.382   3.921   2.333  0.5112  1.3878  0.7627
13682SOL    HW242488   3.524   3.869   2.348  0.1631  0.5921  1.4086
13683SOL     OW42489   5.446   2.965   1.896  0.8166 -0.0256  0.1967
13683SOL    HW142490   5.380   3.018   1.852  1.1267  0.7150  0.6014
13683SOL    HW242491   5.527   3.015   1.886  1.4590 -1.2410 -0.8594
13684SOL     OW42492   5.595   4.203   3.494  0.1550 -0.3077  0.2260
13684SOL    HW142493   5.503   4.219   3.516  0.2954 -0.1631  0.7243
13684SOL    HW242494   5.608   4.109   3.510 -0.2312 -0.6051 -1.0780
13685SOL     OW42495   6.831   2.855   1.804  0.1607  0.0372 -0.0806
13685SOL    HW142496   6.765   2.877   1.738 -0.4699  0.7059  0.7514
13685SOL    HW242497   6.911   2.840   1.753 -0.4268  0.0661 -1.0344
13686SOL     OW42498   5.996   1.402   0.582  0.3065  0.0564 -0.5069
13686SOL    HW142499   5.906   1.405   0.550  0.1870 -0.4475 -0.2232
13686SOL    HW242500   6.033   1.324   0.541  0.1245 -0.6551  0.6380
13687SOL     OW42501   5.252   3.299   1.466  0.1927 -0.1508 -0.0513
13687SOL    HW142502   5.206   3.219   1.442 -0.0999  0.3185 -1.0994
13687SOL    HW242503   5.278   3.285   1.557 -1.1481 -0.8328  0.2540
13688SOL     OW42504   5.019   3.613   3.047  0.9986  0.2088 -0.0481
13688SOL    HW142505   4.925   3.613   3.028  1.4625 -0.2575 -2.5960
13688SOL    HW242506   5.026   3.568   3.132 -1.0852  0.6794  0.4365
13689SOL     OW42507   6.402   2.500   2.898  0.8842  0.7935 -0.0970
13689SOL    HW142508   6.407   2.594   2.915  0.3929  1.1104 -1.5284
13689SOL    HW242509   6.493   2.470   2.898  1.0567  1.3128  0.1289
13690SOL     OW42510   4.107   1.991   1.379  0.0509  0.5722 -0.7260
13690SOL    HW142511   4.099   2.084   1.358  1.1826  1.0681  0.8740
13690SOL    HW242512   4.089   1.946   1.296 -2.3305  2.1126 -1.1358
13691SOL     OW42513   4.677   2.579   4.308 -0.5139  0.1653  0.6284
13691SOL    HW142514   4.736   2.654   4.295 -2.2647  1.3847 -0.8715
13691SOL    HW242515   4.623   2.603   4.382 -0.9452  0.3094  0.2707
13692SOL     OW42516   5.460   1.527   4.051  0.3463 -0.2284  0.2244
13692SOL    HW142517   5.497   1.505   3.965  1.3831 -0.5473  0.7272
13692SOL    HW242518   5.514   1.600   4.081 -2.2876  2.3753 -0.9088
13693SOL     OW42519   2.233   2.204   3.189 -0.3387 -0.3158  0.3606
13693SOL    HW142520   2.188   2.218   3.106 -0.1468 -0.0246  0.3062
13693SOL    HW242521   2.169   2.228   3.256 -0.4146 -0.3276  0.2917
13694SOL     OW42522   4.103   5.070   0.842 -0.1462  0.5775  0.3326
13694SOL    HW142523   4.086   5.069   0.748 -0.7286  1.9244  0.3974
13694SOL    HW242524   4.189   5.112   0.850  1.7048 -2.8339  0.2365
13695SOL     OW42525   4.357   2.924   2.939  0.4973 -0.5739 -0.2913
13695SOL    HW142526   4.418   2.851   2.946  0.2677 -0.7613 -0.2597
13695SOL    HW242527   4.270   2.885   2.951  0.3909 -0.2599 -0.0314
13696SOL     OW42528   4.539   3.461   2.168  0.1756  0.0446  0.1248
13696SOL    HW142529   4.628   3.439   2.140  0.2677  0.1064  0.3685
13696SOL    HW242530   4.536   3.438   2.261  0.3000  1.1434  0.4063
13697SOL     OW42531   3.795   4.214   2.971  0.0970  0.1175  0.1423
13697SOL    HW142532   3.849   4.216   3.050  0.0930  1.4345  0.1312
13697SOL    HW242533   3.733   4.143   2.987  0.4587 -0.0016  1.0829
13698SOL     OW42534   5.560   3.077   4.073  0.4888 -0.7863 -0.0583
13698SOL    HW142535   5.625   3.122   4.126 -1.2343  1.6555  0.1306
13698SOL    HW242536   5.585   3.097   3.982  0.1703 -0.0877  0.0053
13699SOL     OW42537   5.011   2.349   4.201  0.0859 -0.0164  0.2557
13699SOL    HW142538   5.074   2.313   4.263  0.8386 -1.0212 -1.0339
13699SOL    HW242539   4.926   2.322   4.236  0.4447  0.0231  1.1967
13700SOL     OW42540   4.125   1.413   1.998 -0.1931  0.3861 -0.8726
13700SOL    HW142541   4.169   1.382   1.918 -0.1675 -1.4690 -0.1815
13700SOL    HW242542   4.192   1.406   2.066 -0.6266  0.6231 -0.4179
13701SOL     OW42543   4.061   2.396   5.116  0.0000  0.3841  0.3196
13701SOL    HW142544   4.140   2.357   5.154  0.2109 -0.6831 -1.1342
13701SOL    HW242545   4.009   2.322   5.086 -0.0067  1.1331 -1.7116
13702SOL     OW42546   3.287   2.087   2.152  0.1369 -0.2060 -0.2004
13702SOL    HW142547   3.206   2.053   2.112 -0.6186  2.0836 -0.8241
13702SOL    HW242548   3.257   2.129   2.232  0.6456  0.8497 -0.5477
13703SOL     OW42549   5.062   2.799   3.749 -0.0505  0.0683 -0.1106
13703SOL    HW142550   4.995   2.745   3.792 -2.0086  0.6636 -2.1708
13703SOL    HW242551   5.014   2.846   3.680  2.5173  0.5481 -1.7255
13704SOL     OW42552   5.161   2.463   2.373 -0.0570  0.1575 -1.0134
13704SOL    HW142553   5.189   2.554   2.362 -3.0354  1.2699 -0.3238
13704SOL    HW242554   5.086   2.454   2.314 -0.1918 -1.6753 -0.6213
13705SOL     OW42555   3.317   2.929   3.629  0.2269 -0.2299 -0.2190
13705SOL    HW142556   3.226   2.945   3.655  0.7750  1.1698  0.9868
13705SOL    HW242557   3.329   2.834   3.641 -0.3594 -0.0586  2.1270
13706SOL     OW42558   4.703   1.677   3.602  0.5670 -0.6465 -0.4135
13706SOL    HW142559   4.657   1.648   3.524  1.3902 -1.2196 -0.6989
13706SOL    HW242560   4.725   1.597   3.649  0.2150 -0.3180  0.3336
13707SOL     OW42561   5.521   3.351   2.555  0.0672  0.1507 -0.5223
13707SOL    HW142562   5.589   3.396   2.505  0.2853 -0.6934 -1.0017
13707SOL    HW242563   5.505   3.408   2.631  0.8370  0.6778 -0.7460
13708SOL     OW42564   2.178   2.511   1.737  0.2527  0.2288  0.1351
13708SOL    HW142565   2.208   2.515   1.647 -1.5573  0.9411 -0.4868
13708SOL    HW242566   2.240   2.565   1.786  2.3864 -1.7004 -0.2832
13709SOL     OW42567   4.874   2.785   2.615  0.1876 -0.5975 -0.2392
13709SOL    HW142568   4.811   2.805   2.546  1.9604 -0.6387 -1.9616
13709SOL    HW242569   4.933   2.860   2.616  0.2993 -0.6843  1.1390
13710SOL     OW42570   5.552   1.117   5.065  0.3133  0.0633  0.2562
13710SOL    HW142571   5.590   1.131   5.152  1.2409  0.1675 -0.1498
13710SOL    HW242572   5.627   1.121   5.005 -0.1295 -1.2175 -0.4277
13711SOL     OW42573   6.680   4.732   2.915  0.6043  0.4436 -0.0734
13711SOL    HW142574   6.661   4.795   2.986 -0.1651  1.4629 -1.1331
13711SOL    HW242575   6.732   4.664   2.957 -0.6325  0.5102  1.7123
13712SOL     OW42576   2.444   3.238   2.806 -0.0926  0.1189 -0.1844
13712SOL    HW142577   2.412   3.182   2.877 -1.1880  0.2705 -0.5460
13712SOL    HW242578   2.539   3.231   2.812 -0.1808 -1.9797 -0.3566
13713SOL     OW42579   6.244   3.405   4.644 -0.4431  0.4113  0.0433
13713SOL    HW142580   6.313   3.408   4.577  1.2381 -2.9268  1.3493
13713SOL    HW242581   6.274   3.466   4.711 -0.5566  1.4853 -0.8476
13714SOL     OW42582   5.451   3.456   3.533  0.0066  0.1882  0.3564
13714SOL    HW142583   5.488   3.529   3.583 -0.8808  1.1075 -0.2800
13714SOL    HW242584   5.517   3.436   3.467  0.3393  0.2826  0.6557
13715SOL     OW42585   4.600   1.940   3.635 -0.2482  0.0114 -0.4566
13715SOL    HW142586   4.648   1.858   3.626  1.8058  1.2351 -1.4185
13715SOL    HW242587   4.521   1.928   3.582  0.0483 -1.2984 -0.6347
13716SOL     OW42588   2.709   3.205   2.775 -0.2201 -0.4573 -0.3901
13716SOL    HW142589   2.774   3.134   2.765  0.2676  0.0066 -0.5454
13716SOL    HW242590   2.762   3.283   2.790 -0.6660  0.2570 -2.3114
13717SOL     OW42591   5.492   1.095   2.301  0.4230  0.2427 -0.3332
13717SOL    HW142592   5.444   1.027   2.349 -0.0441  1.0174  0.3260
13717SOL    HW242593   5.523   1.155   2.369  1.4439  0.3175 -0.8488
13718SOL     OW42594   5.909   2.903   3.466 -0.2909  0.2660 -0.0828
13718SOL    HW142595   5.946   2.923   3.380 -0.0153  0.7468  0.1443
13718SOL    HW242596   5.845   2.833   3.449  0.9880 -0.8657 -0.4280
13719SOL     OW42597   3.637   2.367   2.301 -0.5821 -0.7969 -0.7846
13719SOL    HW142598   3.692   2.442   2.277 -0.6546  0.0937  1.5022
13719SOL    HW242599   3.557   2.406   2.336 -0.7700 -1.9489  0.1341
13720SOL     OW42600   4.214   3.324   1.699  0.0103  0.1437  0.3018
13720SOL    HW142601   4.179   3.256   1.641 -1.7558 -2.3670  3.9345
13720SOL    HW242602   4.136   3.364   1.738  1.0799  0.6455  2.0466
13721SOL     OW42603   4.553   1.948   1.587  0.0281  0.7411  0.0789
13721SOL    HW142604   4.554   2.000   1.507  0.7991 -0.8854 -1.0315
13721SOL    HW242605   4.506   1.868   1.563  1.4043 -0.3462  0.8240
13722SOL     OW42606   5.913   3.438   3.326 -0.0710 -0.2595 -0.5102
13722SOL    HW142607   5.962   3.519   3.339  0.5496 -0.8470  0.9613
13722SOL    HW242608   5.980   3.369   3.329 -0.7130 -0.9029 -0.7843
13723SOL     OW42609   4.924   3.335   3.235  0.4859  0.0823  0.1953
13723SOL    HW142610   4.835   3.362   3.257  0.8609 -0.3940  2.5465
13723SOL    HW242611   4.979   3.376   3.301  1.5800 -2.4377  0.9937
13724SOL     OW42612   4.643   1.705   2.974 -0.0103  0.3357 -0.7471
13724SOL    HW142613   4.697   1.703   2.895  0.4610 -0.5410 -0.4157
13724SOL    HW242614   4.626   1.613   2.994 -2.2293  0.5766 -1.2258
13725SOL     OW42615   4.465   1.877   3.410 -1.0067  0.0693 -0.0909
13725SOL    HW142616   4.530   1.830   3.358 -0.5914  0.7440 -0.2008
13725SOL    HW242617   4.415   1.809   3.455 -0.4934 -0.4706 -0.3313
13726SOL     OW42618   6.794   2.912   4.081  0.4638 -0.2813 -0.0820
13726SOL    HW142619   6.869   2.854   4.075  1.2014  0.7938 -2.7090
13726SOL    HW242620   6.718   2.854   4.076  1.1773 -1.1367 -1.5065
13727SOL     OW42621   3.289   2.386   4.210  0.5930 -0.0324  0.4491
13727SOL    HW142622   3.267   2.460   4.266  0.3301 -0.5671  1.0734
13727SOL    HW242623   3.216   2.379   4.149 -0.0816 -0.6333  1.2989
13728SOL     OW42624   4.432   3.162   1.983  0.2004  0.2450  0.1005
13728SOL    HW142625   4.394   3.078   2.008  0.8305 -0.0187  0.2026
13728SOL    HW242626   4.364   3.227   2.002  0.6720  0.1006  2.7506
13729SOL     OW42627   4.707   0.587   1.777 -0.3573 -0.1866  0.0545
13729SOL    HW142628   4.799   0.609   1.790 -0.7690  1.8006 -0.0712
13729SOL    HW242629   4.681   0.635   1.698 -1.9663  0.9175  1.1813
13730SOL     OW42630   3.555   2.201   1.628  0.5761 -0.4719 -0.5059
13730SOL    HW142631   3.574   2.170   1.539 -1.8114 -1.1747 -0.8497
13730SOL    HW242632   3.481   2.146   1.657  0.9613  0.0859  1.7261
13731SOL     OW42633   5.504   2.761   3.035  0.4897 -0.2852 -0.4969
13731SOL    HW142634   5.478   2.840   2.987  0.2265 -0.4497 -0.6258
13731SOL    HW242635   5.580   2.788   3.085  0.1040  0.1908 -0.1571
13732SOL     OW42636   5.596   2.073   2.972  0.2006 -0.3340 -0.1351
13732SOL    HW142637   5.515   2.064   3.023 -0.5157  0.1747 -1.1498
13732SOL    HW242638   5.660   2.106   3.035 -1.0886  1.8733  0.1135
13733SOL     OW42639   5.470   2.405   4.848 -0.2636 -0.5130 -0.0929
13733SOL    HW142640   5.491   2.497   4.837  0.9507 -0.9769 -2.3499
13733SOL    HW242641   5.488   2.387   4.941  1.7793  0.9995 -0.1222
13734SOL     OW42642   3.720   2.722   0.783  0.4009  0.0313  0.3909
13734SOL    HW142643   3.746   2.708   0.692  0.5492 -0.1005  0.4530
13734SOL    HW242644   3.746   2.812   0.802 -0.1098  0.2370  0.1409
13735SOL     OW42645   2.930   2.882   1.177 -0.2421 -0.3634 -0.3625
13735SOL    HW142646   2.838   2.904   1.163  0.0163  0.4690 -0.8016
13735SOL    HW242647   2.944   2.803   1.124 -0.5427 -0.1240 -0.8103
13736SOL     OW42648   2.975   4.948   2.149 -0.0386  0.1696  0.1326
13736SOL    HW142649   2.955   5.015   2.214  1.4519  0.6384  0.1313
13736SOL    HW242650   2.928   4.976   2.070 -0.5947  0.4183  0.5465
13737SOL     OW42651   4.412   2.210   3.879  0.0310 -0.0906  0.4330
13737SOL    HW142652   4.459   2.278   3.831  0.0700  0.1806  0.8520
13737SOL    HW242653   4.370   2.256   3.951  0.0963 -0.5161  0.7489
13738SOL     OW42654   3.465   1.911   3.603  0.1813 -0.1652  0.0683
13738SOL    HW142655   3.467   1.975   3.532 -1.7024 -1.4835 -1.2969
13738SOL    HW242656   3.440   1.962   3.680  1.1469  1.1197 -0.4316
13739SOL     OW42657   2.661   1.508   4.283  0.1217  0.0438  0.4191
13739SOL    HW142658   2.742   1.545   4.250 -0.1094  1.7611  1.5994
13739SOL    HW242659   2.686   1.465   4.365 -0.0712  0.2313  0.5800
13740SOL     OW42660   4.866   2.843   4.341  0.4694  0.1809  0.2007
13740SOL    HW142661   4.832   2.914   4.288 -1.2580 -1.0562 -0.4310
13740SOL    HW242662   4.876   2.880   4.429  0.9220  1.5433 -0.4094
13741SOL     OW42663   5.635   3.320   4.854  0.5366  0.1108  0.1375
13741SOL    HW142664   5.547   3.354   4.869 -0.1220 -1.0412 -1.0103
13741SOL    HW242665   5.693   3.395   4.872 -0.6498  0.8737  0.9108
13742SOL     OW42666   5.190   3.283   4.812  0.5638  0.0946  0.1718
13742SOL    HW142667   5.230   3.347   4.871  1.6877  0.3695 -0.8394
13742SOL    HW242668   5.180   3.204   4.866 -1.2450  1.1869  1.5636
13743SOL     OW42669   4.563   0.983   5.402 -0.2299 -0.0780  0.0588
13743SOL    HW142670   4.494   0.997   5.337 -0.4012  1.3916  0.5272
13743SOL    HW242671   4.516   0.981   5.486  0.3047  1.1803  0.4020
13744SOL     OW42672   4.248   2.103   5.223 -0.6460  0.0388 -0.3536
13744SOL    HW142673   4.196   2.032   5.185 -1.0337 -0.3013  0.7820
13744SOL    HW242674   4.313   2.124   5.155  0.1271 -2.0864 -0.3238
13745SOL     OW42675   3.990   3.700   5.049  0.1837 -0.2375  0.6098
13745SOL    HW142676   4.058   3.763   5.071 -0.1077  0.5573 -0.6688
13745SOL    HW242677   3.925   3.711   5.119 -0.8005  2.3417 -0.5858
13746SOL     OW42678   4.089   2.733   3.966 -0.1402  0.1571 -0.0482
13746SOL    HW142679   4.076   2.709   4.058 -0.9106 -0.3211 -0.2734
13746SOL    HW242680   4.005   2.714   3.924 -0.1510  1.4091 -0.6430
13747SOL     OW42681   3.601   2.853   4.833  0.2389  0.0180 -0.0256
13747SOL    HW142682   3.546   2.923   4.869  0.2706  0.2384 -0.3953
13747SOL    HW242683   3.690   2.877   4.859  0.1926 -0.1570  0.2852
13748SOL     OW42684   5.946   4.254   4.398 -0.5142  0.0897 -0.1386
13748SOL    HW142685   5.871   4.265   4.457  1.5082 -1.4435  3.0291
13748SOL    HW242686   6.002   4.191   4.443  1.8290 -0.2660 -3.2468
13749SOL     OW42687   3.628   1.336   3.593 -0.5698 -0.8759 -0.3156
13749SOL    HW142688   3.615   1.410   3.652  0.0329  0.7616 -2.1263
13749SOL    HW242689   3.594   1.261   3.641 -0.8161  0.4820  1.7747
13750SOL     OW42690   5.797   4.044   4.788 -0.0439 -0.7495 -0.0159
13750SOL    HW142691   5.872   4.031   4.846  0.5669 -0.8355 -0.8152
13750SOL    HW242692   5.721   4.025   4.843  0.5301 -1.0392  0.6949
13751SOL     OW42693   5.324   4.833   4.975  0.1256 -0.2551  0.2061
13751SOL    HW142694   5.266   4.759   4.987 -0.5141  0.4145  1.3911
13751SOL    HW242695   5.410   4.802   5.006 -0.2981 -0.2873  1.3863
13752SOL     OW42696   4.665   2.530   4.669 -0.0130 -0.1810  0.1761
13752SOL    HW142697   4.626   2.550   4.584  1.1312 -0.6978 -0.4940
13752SOL    HW242698   4.601   2.561   4.733 -0.2977  1.4711 -0.8515
13753SOL     OW42699   4.841   3.649   5.118  0.7665  0.7608 -0.3865
13753SOL    HW142700   4.814   3.574   5.066 -1.5680  1.2264  0.0601
13753SOL    HW242701   4.828   3.725   5.060  1.9432  0.9616 -0.4204
13754SOL     OW42702   3.545   2.509   4.070  0.5865 -0.4594  0.1671
13754SOL    HW142703   3.630   2.499   4.028 -0.1750  1.4011 -1.9625
13754SOL    HW242704   3.532   2.604   4.078 -0.5855 -0.7120  2.0127
13755SOL     OW42705   6.395   1.884   5.483  0.5722  0.0469 -0.2392
13755SOL    HW142706   6.477   1.842   5.455  0.2727 -0.7385  0.0317
13755SOL    HW242707   6.357   1.822   5.546  0.0834  0.7029  0.1196
13756SOL     OW42708   3.304   2.153   4.351 -0.3726  0.2231  0.1983
13756SOL    HW142709   3.302   2.237   4.306 -1.2660 -0.4924 -1.1795
13756SOL    HW242710   3.221   2.111   4.328 -0.2139 -0.7996  1.3400
13757SOL     OW42711   6.720   2.972   3.314 -0.7469 -0.4904  0.1720
13757SOL    HW142712   6.788   3.025   3.355  0.0713 -1.4187  0.0582
13757SOL    HW242713   6.638   3.010   3.346 -0.1717  0.1822  0.9104
13758SOL     OW42714   6.440   4.426   5.676  0.0225  0.2284 -0.6453
13758SOL    HW142715   6.445   4.484   5.752 -1.1171 -0.8827  0.3214
13758SOL    HW242716   6.529   4.424   5.641  0.7530  0.1962  1.1157
13759SOL     OW42717   3.663   2.869   4.551 -1.1380  0.0310  0.1677
13759SOL    HW142718   3.695   2.865   4.641 -1.3497  1.4523  0.3226
13759SOL    HW242719   3.622   2.955   4.543 -1.7079 -0.3251 -1.1001
13760SOL     OW42720   3.288   2.400   4.588 -0.1848 -0.6970 -0.4427
13760SOL    HW142721   3.373   2.436   4.561  1.1636 -3.1677  0.1114
13760SOL    HW242722   3.277   2.430   4.678  1.3271 -2.2007  0.3085
13761SOL     OW42723   5.020   3.522   3.887  0.0931  0.0582 -0.2803
13761SOL    HW142724   5.004   3.440   3.933 -0.1743 -0.8705 -1.9574
13761SOL    HW242725   5.047   3.496   3.799  1.9608  1.7375 -0.2892
13762SOL     OW42726   3.902   2.074   5.385 -0.0953  0.4203 -0.6066
13762SOL    HW142727   3.922   2.000   5.328  0.5783  1.8319 -2.2954
13762SOL    HW242728   3.974   2.077   5.448  0.1282 -0.0535 -0.8393
13763SOL     OW42729   4.369   1.365   4.996  0.4631 -0.7704 -0.2076
13763SOL    HW142730   4.344   1.274   4.980 -0.7821 -0.2513 -1.3909
13763SOL    HW242731   4.465   1.364   4.990  0.7032 -2.3813  2.1151
13764SOL     OW42732   5.546   3.909   3.465 -0.7533  0.0060  0.3460
13764SOL    HW142733   5.507   3.909   3.377  1.6269 -0.2503 -0.7952
13764SOL    HW242734   5.580   3.820   3.476  0.1232  0.4018  0.9771
13765SOL     OW42735   6.642   3.194   4.700 -0.1971 -0.4737  0.5550
13765SOL    HW142736   6.694   3.129   4.651  2.5112 -0.7939  3.5180
13765SOL    HW242737   6.663   3.278   4.658  1.4344 -0.8181  0.6268
13766SOL     OW42738   5.173   2.857   5.938 -0.3924 -0.0430 -0.3528
13766SOL    HW142739   5.123   2.865   6.020 -2.1262  0.1666 -1.3902
13766SOL    HW242740   5.245   2.798   5.960 -1.8792 -1.4911  0.8491
13767SOL     OW42741   5.200   4.175   4.005 -0.0587 -0.0009  0.2911
13767SOL    HW142742   5.156   4.161   4.088 -1.4614 -3.1237 -0.8276
13767SOL    HW242743   5.290   4.146   4.020 -0.4723 -1.1715  0.5940
13768SOL     OW42744   5.659   4.265   5.564  0.1056  1.1592  0.2160
13768SOL    HW142745   5.717   4.297   5.495 -0.9283  1.4955 -0.5161
13768SOL    HW242746   5.601   4.339   5.582 -0.5178  0.6121  0.4791
13769SOL     OW42747   6.250   3.154   4.304  0.2860  0.1747 -0.4007
13769SOL    HW142748   6.196   3.160   4.383  1.3806 -1.1077  0.4823
13769SOL    HW242749   6.214   3.221   4.246 -1.9861 -0.3309  0.3039
13770SOL     OW42750   4.472   1.068   4.253 -0.2247  0.5192  0.4434
13770SOL    HW142751   4.447   1.156   4.226 -0.7508  0.0770 -0.5563
13770SOL    HW242752   4.424   1.010   4.194 -0.5838 -0.4693  1.6433
13771SOL     OW42753   4.389   2.859   4.065  0.0463 -0.0252 -0.3309
13771SOL    HW142754   4.426   2.947   4.061  0.5908 -0.1301  1.6836
13771SOL    HW242755   4.313   2.863   4.007  0.0339  1.7735 -0.2489
13772SOL     OW42756   5.846   2.641   5.385  0.5744  0.2985 -0.1557
13772SOL    HW142757   5.863   2.577   5.315 -0.0826  0.9544 -0.9330
13772SOL    HW242758   5.863   2.726   5.344  1.9377  0.6253  1.0135
13773SOL     OW42759   5.287   2.496   5.707  0.0455 -0.0812 -0.0611
13773SOL    HW142760   5.232   2.483   5.784  0.0063  2.2456  0.3717
13773SOL    HW242761   5.368   2.533   5.741  0.6950 -0.6052 -0.9993
13774SOL     OW42762   4.419   2.306   4.545 -0.1847 -0.5114 -0.0670
13774SOL    HW142763   4.324   2.299   4.533 -0.2098  0.2989 -0.4310
13774SOL    HW242764   4.429   2.335   4.636 -0.3664  0.7072 -0.4137
13775SOL     OW42765   5.765   1.124   4.136 -0.1983 -0.0400  0.1551
13775SOL    HW142766   5.829   1.101   4.203 -1.4802 -0.3695  1.3142
13775SOL    HW242767   5.776   1.218   4.124  0.5516 -0.1074  0.2717
13776SOL     OW42768   4.164   2.088   5.470 -0.0933  0.1761 -0.0707
13776SOL    HW142769   4.209   2.008   5.496  0.7984  0.3213 -1.0810
13776SOL    HW242770   4.190   2.102   5.379 -0.2673  1.5931  0.0672
13777SOL     OW42771   2.798   2.171   5.207  0.3833 -0.3490 -0.3674
13777SOL    HW142772   2.714   2.211   5.231  0.0570 -0.8390 -0.6801
13777SOL    HW242773   2.863   2.219   5.259 -0.1462 -0.3199  0.2804
13778SOL     OW42774   4.142   3.438   5.056  0.1980 -0.1656 -0.7740
13778SOL    HW142775   4.076   3.507   5.065 -1.6748 -2.0310  1.1994
13778SOL    HW242776   4.093   3.362   5.025  1.7120 -1.2309 -0.6759
13779SOL     OW42777   4.176   2.790   3.392  0.3683 -0.3000  0.2338
13779SOL    HW142778   4.272   2.793   3.394  0.3504  0.6995  0.1493
13779SOL    HW242779   4.151   2.863   3.335 -0.4350 -0.7683 -0.0268
13780SOL     OW42780   6.431   4.777   7.574  0.0348 -0.4064  0.2687
13780SOL    HW142781   6.402   4.862   7.606  1.0513 -0.1771  0.6016
13780SOL    HW242782   6.403   4.715   7.642  1.2696 -0.0513  1.1290
13781SOL     OW42783   4.764   3.028   4.200 -0.5391  0.4076  0.0585
13781SOL    HW142784   4.690   3.023   4.140  1.8353 -0.0101 -3.0997
13781SOL    HW242785   4.808   3.110   4.178  1.4513 -0.6672 -0.1853
13782SOL     OW42786   3.645   1.535   4.984 -0.4748 -0.0498 -0.4881
13782SOL    HW142787   3.577   1.590   4.945  0.3947  0.9854 -0.5996
13782SOL    HW242788   3.718   1.594   4.998 -0.7169 -0.3359  2.7481
13783SOL     OW42789   4.689   3.790   5.304 -0.2587  0.0293 -0.0567
13783SOL    HW142790   4.751   3.738   5.254  0.1745 -0.6456  1.1441
13783SOL    HW242791   4.646   3.845   5.239  0.2857 -0.8118 -1.1582
13784SOL     OW42792   7.506   1.997   4.745  0.3393  0.8140 -0.0654
13784SOL    HW142793   7.597   1.981   4.723  0.2538  0.7217 -0.3579
13784SOL    HW242794   7.476   2.060   4.679  0.1089  0.6158 -0.1508
13785SOL     OW42795   6.559   3.810   6.320 -0.2400  0.0354 -0.1500
13785SOL    HW142796   6.479   3.759   6.307 -1.0437  0.5911  2.0595
13785SOL    HW242797   6.528   3.894   6.354  1.2586  0.3018  0.6525
13786SOL     OW42798   3.458   3.631   4.522  0.2270  0.0028 -0.0449
13786SOL    HW142799   3.447   3.669   4.434 -1.4097 -1.9338 -0.7513
13786SOL    HW242800   3.386   3.669   4.573 -0.9715 -1.4652 -0.5574
13787SOL     OW42801   4.519   3.225   5.377 -0.2897  0.3495  0.0472
13787SOL    HW142802   4.501   3.229   5.471 -2.0859  0.5789 -0.2741
13787SOL    HW242803   4.445   3.269   5.336 -1.3788 -2.7447 -1.6639
13788SOL     OW42804   3.553   2.508   4.524 -0.2316  0.0723 -0.2188
13788SOL    HW142805   3.629   2.531   4.577 -0.2986  1.4767 -0.6868
13788SOL    HW242806   3.529   2.590   4.480 -1.7856 -0.4306 -0.3683
13789SOL     OW42807   5.822   3.976   3.654 -0.1725  0.3992  0.1495
13789SOL    HW142808   5.855   4.012   3.736  0.0827 -1.5417  0.9389
13789SOL    HW242809   5.729   3.962   3.670  0.1473 -1.3539  0.6730
13790SOL     OW42810   4.109   2.086   4.516 -0.4536 -0.0047 -0.2564
13790SOL    HW142811   4.017   2.070   4.497 -0.1964 -0.1301 -1.5474
13790SOL    HW242812   4.118   2.181   4.515 -0.5080  0.0001 -0.5297
13791SOL     OW42813   4.552   2.389   4.076 -0.0826  0.2685  0.4208
13791SOL    HW142814   4.519   2.418   3.991  0.4578 -0.1520  0.0690
13791SOL    HW242815   4.525   2.458   4.136  1.9101  1.9695 -0.5327
13792SOL     OW42816   5.623   4.291   4.140  0.1556 -0.1255 -1.0547
13792SOL    HW142817   5.586   4.316   4.224 -0.4353 -0.8548 -1.0871
13792SOL    HW242818   5.708   4.335   4.137 -0.5463  1.2983 -0.8274
13793SOL     OW42819   6.680   3.215   4.176  0.3634  0.4670  0.1913
13793SOL    HW142820   6.617   3.146   4.200  1.1654 -0.3060  0.1315
13793SOL    HW242821   6.731   3.229   4.256 -0.1733  1.4323  0.3835
13794SOL     OW42822   3.182   2.238   2.384 -0.0191  0.3449  0.0614
13794SOL    HW142823   3.203   2.256   2.476  0.0843 -1.9603  0.5526
13794SOL    HW242824   3.100   2.285   2.368 -2.1221 -2.1356  2.5223
13795SOL     OW42825   4.184   1.146   3.651 -0.1388 -0.2163 -0.1097
13795SOL    HW142826   4.172   1.118   3.560 -0.9623  0.9724 -0.3951
13795SOL    HW242827   4.125   1.090   3.701 -0.2203 -0.4004 -0.4065
13796SOL     OW42828   3.703   1.487   2.921 -0.1279 -0.1355  0.1573
13796SOL    HW142829   3.714   1.579   2.898  0.1519 -0.0960  0.4372
13796SOL    HW242830   3.619   1.483   2.966 -0.3357 -0.0901 -0.2198
13797SOL     OW42831   2.546   3.488   4.547  0.5116  0.0470  0.2274
13797SOL    HW142832   2.538   3.536   4.465 -2.6440  0.8981  0.9290
13797SOL    HW242833   2.616   3.534   4.594  0.0448  1.7026 -0.6050
13798SOL     OW42834   4.447   3.499   5.050 -0.2241  0.6277 -0.2170
13798SOL    HW142835   4.351   3.499   5.051 -0.3048  0.6066 -2.6661
13798SOL    HW242836   4.471   3.585   5.016  0.6520  0.7197  0.6029
13799SOL     OW42837   5.725   1.401   6.895 -0.2618 -0.2461 -0.2179
13799SOL    HW142838   5.658   1.445   6.946  0.0834  0.5634 -0.4417
13799SOL    HW242839   5.796   1.465   6.889  0.5009 -1.0478 -0.0530
13800SOL     OW42840   4.269   2.869   4.677 -0.0961  0.3914 -0.2593
13800SOL    HW142841   4.263   2.947   4.621 -0.3755  0.8427  0.3873
13800SOL    HW242842   4.219   2.892   4.756  0.6020 -0.0949  0.3341
13801SOL     OW42843   5.810   3.377   3.662  0.2715 -0.5951  0.4248
13801SOL    HW142844   5.772   3.304   3.612  0.4116 -1.3101  1.3350
13801SOL    HW242845   5.904   3.366   3.654  0.3155  0.5515 -0.9309
13802SOL     OW42846   4.789   1.417   4.528 -0.0753  0.2436  0.2187
13802SOL    HW142847   4.720   1.455   4.472  1.0489  2.4493  0.1946
13802SOL    HW242848   4.831   1.352   4.473 -2.8560 -2.1039  0.6431
13803SOL     OW42849   4.565   3.212   3.375  0.2990  0.2221  0.0492
13803SOL    HW142850   4.514   3.161   3.438  1.7225 -0.3349  0.7948
13803SOL    HW242851   4.549   3.169   3.291 -0.6027  0.1860  0.2273
13804SOL     OW42852   3.377   0.655   3.778  0.5562 -0.0498  0.0656
13804SOL    HW142853   3.335   0.569   3.784 -0.7967  0.5300 -0.5922
13804SOL    HW242854   3.398   0.664   3.685 -2.1478  1.5543 -0.4995
13805SOL     OW42855   5.317   2.220   3.542 -0.1880  0.4208  0.4673
13805SOL    HW142856   5.378   2.293   3.543 -0.4392  0.6316  0.4021
13805SOL    HW242857   5.276   2.221   3.628 -0.6732  0.7668  0.2369
13806SOL     OW42858   4.608   1.909   5.379  0.1469  0.0475  0.0851
13806SOL    HW142859   4.600   2.004   5.376  0.5345  0.0579 -0.8584
13806SOL    HW242860   4.690   1.890   5.333 -1.0201 -0.8746 -1.7032
13807SOL     OW42861   4.211   1.691   5.293  0.3507 -0.1318  0.7901
13807SOL    HW142862   4.163   1.765   5.256 -0.0081  0.0788  1.6460
13807SOL    HW242863   4.244   1.723   5.377 -1.7332 -1.5794  2.2865
13808SOL     OW42864   6.055   4.736   3.287 -0.2651  0.2281  0.0951
13808SOL    HW142865   6.041   4.758   3.194  1.5040  1.2728  0.0242
13808SOL    HW242866   6.027   4.815   3.334  1.6308  0.8958  0.1924
13809SOL     OW42867   4.215   2.488   3.279  0.0943  0.0797  0.2577
13809SOL    HW142868   4.182   2.570   3.313  0.0343 -0.1938  0.8623
13809SOL    HW242869   4.222   2.430   3.355 -0.5978 -0.7280 -0.2653
13810SOL     OW42870   4.810   2.126   5.852  0.1831 -0.0918  0.1203
13810SOL    HW142871   4.731   2.178   5.840  0.3626  0.1046 -0.2235
13810SOL    HW242872   4.853   2.127   5.767  1.1360  0.7592  0.5912
13811SOL     OW42873   4.826   2.851   5.329  0.0205 -0.3904  0.0665
13811SOL    HW142874   4.910   2.888   5.356 -0.1671 -1.0365  1.6515
13811SOL    HW242875   4.800   2.794   5.401 -2.5726  1.0600  0.4054
13812SOL     OW42876   5.224   2.570   4.364  0.0254  0.2367 -0.0162
13812SOL    HW142877   5.315   2.577   4.393  0.1216 -2.8473  0.8269
13812SOL    HW242878   5.175   2.625   4.424  1.1097  0.0661  1.0557
13813SOL     OW42879   5.052   1.166   5.653  0.2194 -0.1605 -0.0722
13813SOL    HW142880   5.096   1.145   5.570 -1.3797  1.3290 -1.3657
13813SOL    HW242881   5.007   1.249   5.636 -0.8826 -0.2614  2.0388
13814SOL     OW42882   3.653   3.343   4.825  0.1164 -0.0443  0.4953
13814SOL    HW142883   3.566   3.333   4.788 -0.4629  0.5365  1.6413
13814SOL    HW242884   3.697   3.405   4.767 -0.4103  0.0576  0.1999
13815SOL     OW42885   5.978   2.405   4.917 -0.0606  0.6052  0.1474
13815SOL    HW142886   6.006   2.483   4.966  0.9079  0.3537  0.0186
13815SOL    HW242887   5.966   2.337   4.983  0.2786  0.5370  0.1412
13816SOL     OW42888   5.229   2.964   3.966 -0.5395 -0.3712 -0.3703
13816SOL    HW142889   5.310   2.997   4.005 -0.0898 -0.1007 -1.4906
13816SOL    HW242890   5.183   2.923   4.039  0.0868  0.4454  0.5291
13817SOL     OW42891   5.246   3.667   6.010 -0.4777  0.0107  0.0020
13817SOL    HW142892   5.337   3.638   6.015 -0.3457  0.5990  1.6601
13817SOL    HW242893   5.220   3.649   5.919  1.2440 -0.2581 -0.4775
13818SOL     OW42894   4.416   3.119   3.593  0.2242  0.1021  0.1789
13818SOL    HW142895   4.414   3.027   3.620  0.2387  0.3532  1.0969
13818SOL    HW242896   4.440   3.166   3.673 -0.4453  0.9672 -0.1143
13819SOL     OW42897   4.123   7.876   4.052  0.0086  0.2243 -0.1860
13819SOL    HW142898   4.106   7.859   3.960  0.9039  0.3368 -0.3848
13819SOL    HW242899   4.156   7.966   4.055  1.4543 -0.2786  0.0285
13820SOL     OW42900   6.045   4.921   5.551 -0.3456 -0.2717 -0.5897
13820SOL    HW142901   6.117   4.951   5.606 -0.5494 -1.7840  0.5703
13820SOL    HW242902   6.085   4.910   5.464 -0.0013  2.0412 -0.7911
13821SOL     OW42903   5.365   2.756   5.226  0.2160  0.1914 -0.0387
13821SOL    HW142904   5.276   2.793   5.221  0.2702  0.3913  0.3912
13821SOL    HW242905   5.421   2.832   5.242  0.5511  0.1587 -1.0064
13822SOL     OW42906   5.046   4.565   5.643 -0.2679  0.0554  0.0987
13822SOL    HW142907   4.975   4.574   5.580  0.3614  0.7308 -0.5226
13822SOL    HW242908   5.109   4.506   5.602 -0.3011 -0.2720  0.5051
13823SOL     OW42909   3.949   3.516   5.338 -0.0508  0.2864 -0.0034
13823SOL    HW142910   3.870   3.522   5.285 -1.4707 -0.4635  1.9344
13823SOL    HW242911   3.968   3.423   5.343  1.2278  0.4780 -0.7562
13824SOL     OW42912   4.863   2.635   3.845  0.2031 -0.0632 -0.1187
13824SOL    HW142913   4.936   2.585   3.881  1.7391  0.6721 -2.0199
13824SOL    HW242914   4.790   2.615   3.903  1.9258 -0.7087  1.9702
13825SOL     OW42915   7.863   0.546   5.244 -0.1589 -0.2120 -0.3073
13825SOL    HW142916   7.788   0.588   5.285  0.0961  1.1342 -1.1641
13825SOL    HW242917   7.932   0.612   5.247  1.8443 -2.1825  2.6812
13826SOL     OW42918   4.762   3.035   5.707 -0.2573  0.2072  0.1364
13826SOL    HW142919   4.790   3.097   5.640  0.5186  1.1227  1.2641
13826SOL    HW242920   4.674   3.063   5.731  0.2454  1.1598  0.9336
13827SOL     OW42921   2.982   2.490   2.020 -0.7984 -0.1056  0.4242
13827SOL    HW142922   2.928   2.564   1.993  0.6530  0.1404 -2.2409
13827SOL    HW242923   3.016   2.514   2.106 -0.2560  2.4512 -0.4299
13828SOL     OW42924   4.147   0.713   5.965 -0.2473  0.2224 -0.1339
13828SOL    HW142925   4.196   0.743   6.042 -0.6193  0.0043  0.1934
13828SOL    HW242926   4.143   0.618   5.976  0.2058  0.1301 -0.7312
13829SOL     OW42927   4.580   2.269   5.848  0.2159 -0.1845  0.5969
13829SOL    HW142928   4.487   2.264   5.828  0.3138  0.2102  0.0032
13829SOL    HW242929   4.589   2.343   5.907  0.4735  1.6365 -1.5685
13830SOL     OW42930   4.176   3.739   4.842  0.1293 -0.2809 -0.5419
13830SOL    HW142931   4.142   3.777   4.761  1.3751 -2.0164 -1.9541
13830SOL    HW242932   4.097   3.717   4.893 -0.7289 -0.3269 -1.8478
13831SOL     OW42933   5.241   1.197   5.830  0.0804  0.1122 -0.3948
13831SOL    HW142934   5.163   1.175   5.780 -0.0773  2.6663 -1.4264
13831SOL    HW242935   5.249   1.127   5.894 -3.4253  0.0610  0.1853
13832SOL     OW42936   4.919   3.655   4.133 -0.1542  0.1690  0.2149
13832SOL    HW142937   4.919   3.648   4.037  1.7302  0.4961  0.1548
13832SOL    HW242938   4.896   3.746   4.150 -1.6119 -0.1587  0.1461
13833SOL     OW42939   5.820   3.065   5.517  0.2479 -0.3728  0.3576
13833SOL    HW142940   5.828   3.013   5.437  0.6292 -2.8521  1.8903
13833SOL    HW242941   5.908   3.066   5.554  0.0421  0.5817  0.8417
13834SOL     OW42942   5.091   3.331   5.106 -0.1822 -0.4299 -0.5198
13834SOL    HW142943   5.035   3.348   5.030  0.1825  0.8658 -0.5193
13834SOL    HW242944   5.031   3.298   5.173 -1.0532  1.3371 -0.3758
13835SOL     OW42945   3.765   3.501   4.652 -0.0837 -0.1842 -0.0205
13835SOL    HW142946   3.857   3.476   4.657 -0.3538 -1.0998  0.4105
13835SOL    HW242947   3.761   3.561   4.577  1.3397  2.0142  1.5316
13836SOL     OW42948   5.595   2.863   5.875 -0.3254  0.3928 -0.2629
13836SOL    HW142949   5.571   2.889   5.964  0.1544 -0.3992  0.1045
13836SOL    HW242950   5.562   2.774   5.867  1.4361 -0.2985 -0.1575
13837SOL     OW42951   6.653   2.439   6.254  0.4812 -0.1011 -0.1772
13837SOL    HW142952   6.672   2.485   6.336  0.3991  1.8765 -1.1979
13837SOL    HW242953   6.585   2.376   6.277  1.2171 -0.3591  1.4723
13838SOL     OW42954   3.400   2.162   3.461 -0.4036  0.0220  0.1930
13838SOL    HW142955   3.385   2.239   3.406 -1.8674  0.2725  0.8906
13838SOL    HW242956   3.415   2.199   3.549  3.2872 -0.2689 -0.1292
13839SOL     OW42957   6.084   1.696   6.094  0.4113 -0.6356  0.2721
13839SOL    HW142958   6.015   1.630   6.089 -0.2782  0.1217 -0.4351
13839SOL    HW242959   6.039   1.777   6.119  1.1530 -0.3012  0.5486
13840SOL     OW42960   4.111   2.179   5.754  0.1798  0.1608 -0.1020
13840SOL    HW142961   4.110   2.139   5.667 -0.3555  2.2218 -1.1145
13840SOL    HW242962   4.182   2.244   5.749 -0.4173  0.8959  0.7039
13841SOL     OW42963   4.921   2.570   4.681 -0.1151 -0.4048  0.3640
13841SOL    HW142964   4.956   2.490   4.720 -1.2529 -1.8884 -1.4787
13841SOL    HW242965   4.826   2.560   4.687 -0.2814  0.4120 -0.5861
13842SOL     OW42966   5.008   1.465   4.152  0.5217 -0.2637 -0.9322
13842SOL    HW142967   4.941   1.533   4.163 -0.8806 -1.7291  0.2275
13842SOL    HW242968   5.000   1.412   4.231  1.5165 -1.8029 -1.8230
13843SOL     OW42969   4.300   3.157   5.018 -0.3830 -0.4305 -0.5808
13843SOL    HW142970   4.389   3.184   4.995 -0.5323  1.0721  0.4364
13843SOL    HW242971   4.252   3.157   4.935  0.5220 -1.1040 -1.1135
13844SOL     OW42972   3.847   1.765   5.372 -0.6785 -0.1861 -0.2640
13844SOL    HW142973   3.905   1.814   5.313 -0.7209 -1.1696 -1.1573
13844SOL    HW242974   3.768   1.750   5.320  0.1201 -2.9761 -0.8243
13845SOL     OW42975   6.016   3.250   5.833  0.6006  0.0254  0.1116
13845SOL    HW142976   5.966   3.303   5.894 -0.3928 -0.4848 -0.2312
13845SOL    HW242977   6.082   3.206   5.887 -0.4152 -0.6109  0.8672
13846SOL     OW42978   5.329   0.722   4.664 -0.2686 -0.0268  0.1694
13846SOL    HW142979   5.381   0.660   4.612  1.3621  0.8006  0.7428
13846SOL    HW242980   5.339   0.806   4.618 -1.1139  0.1459  0.2904
13847SOL     OW42981   5.962   1.870   4.511  0.3209  0.1721 -0.3674
13847SOL    HW142982   5.931   1.958   4.489 -1.6880 -0.2714  0.4514
13847SOL    HW242983   5.938   1.858   4.603  0.8270 -1.1163 -0.3797
13848SOL     OW42984   4.003   2.886   4.475  0.8863 -0.2860 -0.2876
13848SOL    HW142985   4.088   2.928   4.487  0.8343 -0.5332  1.0342
13848SOL    HW242986   3.939   2.951   4.503  0.7764 -0.9687  1.1365
13849SOL     OW42987   7.359   3.597   4.413 -0.5855  0.4025 -0.0996
13849SOL    HW142988   7.434   3.539   4.402 -0.5779  0.5702 -1.0293
13849SOL    HW242989   7.380   3.648   4.492  0.3159  0.4870 -0.3740
13850SOL     OW42990   4.560   1.225   6.800  0.2810 -0.9230 -0.3399
13850SOL    HW142991   4.571   1.286   6.727  1.8043 -0.5358  0.1800
13850SOL    HW242992   4.502   1.157   6.766 -2.4826  1.3678 -0.5795
13851SOL     OW42993   3.527   1.976   4.351  1.2618  0.0664  0.1414
13851SOL    HW142994   3.452   2.036   4.345  0.1997 -1.2939 -1.3712
13851SOL    HW242995   3.591   2.011   4.289  1.3010  0.4732  0.4095
13852SOL     OW42996   4.993   2.249   5.064  0.1571  0.4407  0.7924
13852SOL    HW142997   4.904   2.249   5.100 -0.2964 -0.1746 -0.2579
13852SOL    HW242998   5.048   2.279   5.135 -1.2151  3.8483  0.5898
13853SOL     OW42999   5.147   2.714   4.600 -0.0370 -1.0313 -0.4356
13853SOL    HW143000   5.064   2.672   4.621  0.7479 -2.6012 -0.2872
13853SOL    HW243001   5.124   2.804   4.576 -1.5413 -0.7372  1.8357
13854SOL     OW43002   3.025   2.158   3.279  0.0010  0.5129  0.7347
13854SOL    HW143003   3.027   2.066   3.305 -0.7050  0.5587  0.9780
13854SOL    HW243004   2.932   2.181   3.277  0.2000  1.4732  1.5516
13855SOL     OW43005   5.627   2.459   4.193 -0.0081  0.2458  0.3032
13855SOL    HW143006   5.652   2.533   4.248 -0.7922  0.5758  0.2190
13855SOL    HW243007   5.650   2.486   4.104 -0.6260  0.5340  0.2301
13856SOL     OW43008   5.894   1.130   5.618  0.4246  0.1071  0.0197
13856SOL    HW143009   5.897   1.173   5.533  0.0218  0.9277  0.4138
13856SOL    HW243010   5.974   1.158   5.663  0.9630 -0.8311 -0.3072
13857SOL     OW43011   6.803   2.461   6.004 -0.4072  0.0355  0.1764
13857SOL    HW143012   6.786   2.442   6.096  0.5385 -1.3278  0.1005
13857SOL    HW243013   6.723   2.432   5.959  0.6588 -3.3848  0.1558
13858SOL     OW43014   4.139   4.044   4.991 -0.0008 -0.0238  1.1720
13858SOL    HW143015   4.097   3.999   4.917 -0.4214  0.3925  1.1482
13858SOL    HW243016   4.071   4.046   5.059 -0.2159  1.1169  0.9511
13859SOL     OW43017   4.143   2.951   4.908 -0.5236 -0.3254  0.0680
13859SOL    HW143018   4.121   3.029   4.857 -1.2135 -1.1951 -1.0318
13859SOL    HW243019   4.099   2.964   4.992 -0.9358  0.3098 -0.2353
13860SOL     OW43020   4.924   0.845   5.073 -0.7022  0.3452  0.5417
13860SOL    HW143021   4.849   0.895   5.106  0.8013  1.9720  1.7064
13860SOL    HW243022   4.982   0.912   5.036  1.2836 -0.5200  1.9311
13861SOL     OW43023   3.117   0.448   5.149 -0.9192  0.3192 -0.1549
13861SOL    HW143024   3.133   0.494   5.232  0.9154  0.0274 -0.3099
13861SOL    HW243025   3.109   0.356   5.175  1.4269 -0.0068 -0.4429
13862SOL     OW43026   3.605   1.321   4.838  0.2402  0.6253  0.4334
13862SOL    HW143027   3.541   1.262   4.878 -0.7459  0.2285 -1.6280
13862SOL    HW243028   3.631   1.379   4.910 -1.7762  0.2473  1.5549
13863SOL     OW43029   6.239   2.580   6.717 -0.2126  0.1264  0.4275
13863SOL    HW143030   6.203   2.619   6.637 -0.7852 -0.1991  0.5220
13863SOL    HW243031   6.243   2.487   6.699 -1.3530 -0.0799  1.1487
13864SOL     OW43032   3.915   0.619   5.195  0.3349  0.2259  0.2025
13864SOL    HW143033   4.004   0.625   5.161 -0.2720  1.3690 -1.3274
13864SOL    HW243034   3.924   0.583   5.283  2.2420 -0.2180 -0.1482
13865SOL     OW43035   5.770   2.657   4.757 -0.1292  0.1623  0.2563
13865SOL    HW143036   5.742   2.748   4.749  0.9595  0.3525 -2.1346
13865SOL    HW243037   5.862   2.662   4.783 -0.2725 -0.2884  0.8741
13866SOL     OW43038   5.199   1.946   5.546  0.8331  0.0971  0.1310
13866SOL    HW143039   5.253   1.872   5.518 -0.2150 -0.7667  0.3293
13866SOL    HW243040   5.258   2.000   5.599  1.8976 -0.0417 -0.8638
13867SOL     OW43041   5.728   3.481   5.162  0.7690 -0.4937 -0.3423
13867SOL    HW143042   5.748   3.410   5.223 -0.0453 -1.1179 -0.7678
13867SOL    HW243043   5.811   3.525   5.147  1.2104 -1.1161  0.2363
13868SOL     OW43044   5.869   1.470   5.454  0.3053 -0.2003 -0.1971
13868SOL    HW143045   5.783   1.498   5.423 -0.4357 -0.6923  1.3078
13868SOL    HW243046   5.912   1.551   5.482 -0.1136 -0.0772  0.0973
13869SOL     OW43047   4.397   2.842   2.653  0.0654  0.2719 -0.4020
13869SOL    HW143048   4.377   2.903   2.725  0.6469  0.0998 -0.0869
13869SOL    HW243049   4.437   2.897   2.586 -1.5846  0.6488 -1.1095
13870SOL     OW43050   4.541   3.267   4.912 -0.0743 -0.1969  0.2650
13870SOL    HW143051   4.538   3.269   4.817 -1.8328 -1.6041  0.2414
13870SOL    HW243052   4.518   3.356   4.939  1.0236  0.3669 -0.5928
13871SOL     OW43053   5.057   3.010   4.915  0.6560  0.4054 -0.0683
13871SOL    HW143054   4.968   3.026   4.882 -0.3896  1.3197  2.7914
13871SOL    HW243055   5.075   2.919   4.892 -1.4680 -0.1114  0.0640
13872SOL     OW43056   4.116   2.235   3.765  0.7067 -0.2847  0.5373
13872SOL    HW143057   4.178   2.162   3.751 -0.0507 -0.8296 -0.0349
13872SOL    HW243058   4.149   2.278   3.844  1.2653 -1.1531  0.8033
13873SOL     OW43059   4.343   3.727   5.347 -0.5371 -0.2521 -0.0068
13873SOL    HW143060   4.322   3.732   5.254 -1.2799  1.0018  0.1976
13873SOL    HW243061   4.264   3.760   5.391 -0.1638 -0.7349  1.0685
13874SOL     OW43062   6.438   3.617   2.343  0.1124  0.2137 -0.2082
13874SOL    HW143063   6.446   3.673   2.421 -1.1689 -0.1426  0.2006
13874SOL    HW243064   6.350   3.632   2.312 -0.4076 -1.8314  0.1267
13875SOL     OW43065   4.773   3.460   4.954  0.1458  0.3331  0.1380
13875SOL    HW143066   4.796   3.436   4.864 -1.1232 -0.6908  0.0686
13875SOL    HW243067   4.699   3.520   4.944 -0.8574 -0.7957  0.5024
13876SOL     OW43068   5.112   2.285   5.667 -0.1096 -0.0472  0.0976
13876SOL    HW143069   5.166   2.231   5.610 -0.8774 -0.3387 -0.3650
13876SOL    HW243070   5.151   2.373   5.661  1.3632 -0.5872  1.1353
13877SOL     OW43071   5.403   3.436   4.969  0.1649 -0.0510 -0.0531
13877SOL    HW143072   5.415   3.468   5.058 -2.1006  0.1814  0.2303
13877SOL    HW243073   5.375   3.512   4.919  1.2807 -0.2085 -0.9826
13878SOL     OW43074   5.096   2.053   6.386 -0.5245  0.2606  0.3043
13878SOL    HW143075   5.070   1.970   6.346 -0.0899 -0.1721  0.9208
13878SOL    HW243076   5.039   2.118   6.344 -0.7648 -0.3222 -0.2858
13879SOL     OW43077   5.171   2.570   5.062  0.0385  0.1865 -0.8384
13879SOL    HW143078   5.224   2.492   5.077 -0.7777 -0.3444 -0.5913
13879SOL    HW243079   5.218   2.641   5.108  0.6819 -0.1974 -0.8974
13880SOL     OW43080   3.819   2.562   4.629  0.6578  0.0189  0.1240
13880SOL    HW143081   3.883   2.619   4.671 -0.3970  2.0115 -0.8625
13880SOL    HW243082   3.834   2.576   4.535 -1.6734  1.1136 -0.1342
13881SOL     OW43083   4.706   3.465   3.766 -0.0101  0.0218 -0.1622
13881SOL    HW143084   4.758   3.445   3.844  1.2135 -0.3147 -1.0376
13881SOL    HW243085   4.731   3.554   3.743 -3.4616  1.8725  2.1659
13882SOL     OW43086   3.520   3.101   4.565 -0.3271 -0.4852  0.4668
13882SOL    HW143087   3.563   3.164   4.508 -0.5237 -1.3453 -0.6732
13882SOL    HW243088   3.448   3.149   4.605  0.5445  0.4535  0.9328
13883SOL     OW43089   4.892   2.671   5.119  0.4837  0.1787 -0.1575
13883SOL    HW143090   4.969   2.617   5.100  0.5272  0.6645 -1.4648
13883SOL    HW243091   4.916   2.719   5.198  0.5173 -1.5424  0.9397
13884SOL     OW43092   5.182   3.241   5.529 -0.4349  0.2275  0.0218
13884SOL    HW143093   5.259   3.262   5.477 -1.7188  0.2199 -1.9831
13884SOL    HW243094   5.120   3.311   5.510 -0.7824  0.4918  1.9644
13885SOL     OW43095   3.307   2.769   5.055 -0.7146  0.5211 -0.1861
13885SOL    HW143096   3.348   2.852   5.032 -0.4848  0.7018  0.8145
13885SOL    HW243097   3.363   2.702   5.015 -0.1131  0.8055  0.1744
13886SOL     OW43098   7.030   2.787   5.911  0.3483 -0.2947  0.2212
13886SOL    HW143099   7.051   2.710   5.963 -0.8508 -2.1315 -1.8523
13886SOL    HW243100   7.093   2.785   5.839 -0.2259  0.1848 -0.3018
13887SOL     OW43101   5.334   2.934   4.439  0.5601  0.2013 -0.3400
13887SOL    HW143102   5.268   2.935   4.370 -0.9975 -0.2404  1.0683
13887SOL    HW243103   5.293   2.980   4.512  1.3468 -1.0721  0.9673
13888SOL     OW43104   6.701   7.065   2.684 -0.1268 -0.3859  0.4011
13888SOL    HW143105   6.654   6.997   2.636  1.0235 -0.1723 -1.1323
13888SOL    HW243106   6.766   7.017   2.735 -0.1251 -0.5229  0.2730
13889SOL     OW43107   5.896   2.885   5.863  0.3769 -0.4705  0.2318
13889SOL    HW143108   5.837   2.830   5.914  0.5097  0.6751  1.6838
13889SOL    HW243109   5.970   2.827   5.841  0.0593 -1.1353  0.8792
13890SOL     OW43110   3.410   2.951   4.379 -0.0112  0.5894 -0.4461
13890SOL    HW143111   3.463   2.966   4.301  1.4612  1.3493  0.6531
13890SOL    HW243112   3.451   3.004   4.447 -0.6908 -0.7421  1.0877
13891SOL     OW43113   6.094   0.423   3.236  0.0923  0.5920  0.2230
13891SOL    HW143114   6.087   0.450   3.327 -0.2443 -0.1898  0.4350
13891SOL    HW243115   6.146   0.342   3.239 -1.3565 -0.3917 -0.0863
13892SOL     OW43116   2.989   1.293   3.346 -0.5831 -0.3069  0.1840
13892SOL    HW143117   2.966   1.338   3.264  0.0840  3.4230  1.8317
13892SOL    HW243118   3.085   1.288   3.343 -0.5290  0.2271  0.8800
13893SOL     OW43119   5.991   2.787   4.453  0.6916  0.0957 -0.5998
13893SOL    HW143120   6.037   2.797   4.536 -0.0820  0.7000 -0.2297
13893SOL    HW243121   6.009   2.868   4.406 -1.2201  1.0546  0.1924
13894SOL     OW43122   4.745   1.662   4.764 -0.1060 -0.5483  0.5927
13894SOL    HW143123   4.708   1.750   4.762  1.6254  0.2109  0.3409
13894SOL    HW243124   4.839   1.675   4.756  0.2519 -2.3993  1.2607
13895SOL     OW43125   6.151   3.078   4.561 -0.1215 -0.0359 -0.2865
13895SOL    HW143126   6.220   3.141   4.581  0.5905 -0.1654 -2.1815
13895SOL    HW243127   6.079   3.102   4.619  0.5609  1.7730 -0.1343
13896SOL     OW43128   5.358   2.995   6.108 -0.0110  0.4715  0.4681
13896SOL    HW143129   5.350   2.902   6.131 -0.0168  0.0678 -1.0223
13896SOL    HW243130   5.290   3.038   6.158 -0.0104 -0.3272  1.1910
13897SOL     OW43131   4.446   3.269   3.833 -0.1339  0.1909  0.6321
13897SOL    HW143132   4.527   3.310   3.803 -0.4543 -0.6174 -1.5028
13897SOL    HW243133   4.378   3.334   3.817 -0.6737 -1.0625 -2.9514
13898SOL     OW43134   4.069   2.773   5.794  0.2774  0.7280  0.0806
13898SOL    HW143135   4.071   2.683   5.827 -1.2401  1.0276  1.0976
13898SOL    HW243136   4.002   2.772   5.726  1.6811  0.6679 -1.3563
13899SOL     OW43137   5.456   3.341   5.392  0.3178 -0.2168 -0.2563
13899SOL    HW143138   5.441   3.433   5.373 -0.1029 -0.6211 -2.1083
13899SOL    HW243139   5.551   3.333   5.402  0.7380 -0.0268 -3.1595
13900SOL     OW43140   3.389   3.376   4.640 -0.4673 -0.2814  0.4742
13900SOL    HW143141   3.337   3.411   4.712 -0.9213 -0.0464  0.0373
13900SOL    HW243142   3.447   3.448   4.614  2.1851 -1.3838  2.8356
13901SOL     OW43143   4.434   3.556   5.618  0.0282  0.0834 -0.5137
13901SOL    HW143144   4.347   3.546   5.580  0.2980 -0.1599 -1.0968
13901SOL    HW243145   4.464   3.466   5.633 -0.4526  0.1855  1.2122
13902SOL     OW43146   4.331   2.661   5.776 -0.1745  0.6270  0.2625
13902SOL    HW143147   4.390   2.711   5.832  0.6734  0.7269 -0.6929
13902SOL    HW243148   4.378   2.652   5.693 -2.5577  3.1100 -1.5489
13903SOL     OW43149   3.842   2.743   3.816 -0.2064 -0.0294 -0.0681
13903SOL    HW143150   3.878   2.794   3.743  2.1565 -2.2473 -0.5882
13903SOL    HW243151   3.749   2.765   3.816  0.1201  1.7614 -2.3151
13904SOL     OW43152   5.770   3.359   7.292  0.3493 -0.4357  0.1270
13904SOL    HW143153   5.750   3.362   7.386  0.1164 -0.1953  0.0697
13904SOL    HW243154   5.861   3.330   7.288  0.4763 -0.0887  0.4406
13905SOL     OW43155   5.409   2.748   3.804 -0.3448 -0.5455  0.4903
13905SOL    HW143156   5.359   2.828   3.823  0.6062  0.3834 -0.7478
13905SOL    HW243157   5.345   2.677   3.812 -2.0491  0.6436 -1.5818
13906SOL     OW43158   3.026   1.813   4.414 -0.2133  0.2907  0.2011
13906SOL    HW143159   3.010   1.858   4.331 -0.2727  1.5205  0.8569
13906SOL    HW243160   3.088   1.870   4.461  0.4683 -0.7944  0.6716
13907SOL     OW43161   4.801   3.134   5.183 -0.0515  0.8537 -0.3479
13907SOL    HW143162   4.824   3.142   5.090  1.0224  0.8013 -0.0994
13907SOL    HW243163   4.824   3.218   5.221  0.6151  0.4765  0.0924
13908SOL     OW43164   3.510   1.780   5.333  0.5630 -0.0891  0.3215
13908SOL    HW143165   3.551   1.864   5.355  0.5565  0.8090 -2.6796
13908SOL    HW243166   3.452   1.800   5.259 -0.7306 -2.4620  0.5958
13909SOL     OW43167   4.984   2.799   3.138  0.2690 -0.3362  0.6212
13909SOL    HW143168   5.036   2.801   3.058 -1.8531 -0.9868 -0.8587
13909SOL    HW243169   4.955   2.890   3.150 -2.2384 -0.7519 -1.4164
13910SOL     OW43170   4.836   2.039   4.301  0.2187 -0.0120  0.1744
13910SOL    HW143171   4.815   2.107   4.365 -0.3079  1.5959 -1.6335
13910SOL    HW243172   4.752   2.017   4.261  0.4326 -1.5303  0.4791
13911SOL     OW43173   5.085   1.498   5.327 -0.7740 -0.8589 -0.4683
13911SOL    HW143174   5.120   1.587   5.327 -3.1527  0.1710 -1.3131
13911SOL    HW243175   5.130   1.454   5.255 -0.2855 -0.0370 -0.6811
13912SOL     OW43176   3.739   3.513   5.160 -0.1156  0.1892  0.0180
13912SOL    HW143177   3.685   3.574   5.110 -1.5933 -0.6180  0.5395
13912SOL    HW243178   3.748   3.436   5.104  0.0395  0.1121  0.1455
13913SOL     OW43179   5.109   2.601   5.389  0.2422  0.2950 -0.2881
13913SOL    HW143180   5.135   2.511   5.408  1.3971  0.3745 -1.3788
13913SOL    HW243181   5.191   2.652   5.396  0.2310  0.7502 -2.6386
13914SOL     OW43182   4.266   1.781   4.982 -0.0210  0.9650 -0.8651
13914SOL    HW143183   4.255   1.841   4.908  2.7885  2.2681 -0.3589
13914SOL    HW243184   4.193   1.802   5.040 -2.2012  0.0189 -3.0970
13915SOL     OW43185   5.859   2.314   4.485  0.4756 -0.6071  0.5273
13915SOL    HW143186   5.915   2.302   4.561  0.8994  0.2405  0.3571
13915SOL    HW243187   5.785   2.365   4.518 -0.8121 -2.6487  1.0155
13916SOL     OW43188   3.034   2.547   4.884 -0.0558  0.3703  0.2916
13916SOL    HW143189   3.050   2.559   4.977 -0.1236  0.6505  0.2673
13916SOL    HW243190   3.045   2.634   4.846 -2.3817  0.7727  0.3724
13917SOL     OW43191   4.605   2.446   5.585 -0.0570  0.4169  0.3859
13917SOL    HW143192   4.591   2.357   5.554  0.1519  0.5610 -0.1431
13917SOL    HW243193   4.682   2.477   5.536  1.7117 -0.1015  2.6420
13918SOL     OW43194   4.156   3.138   4.725  0.1658 -0.2166 -0.0713
13918SOL    HW143195   4.219   3.210   4.714  1.3085 -1.1471  0.1388
13918SOL    HW243196   4.087   3.156   4.661  0.8487  0.6365 -0.5901
13919SOL     OW43197   4.568   2.418   3.807  0.4115  0.2349  0.1563
13919SOL    HW143198   4.562   2.509   3.778  1.4073  0.4838  0.6546
13919SOL    HW243199   4.648   2.385   3.765 -0.8491 -0.9686 -1.4084
13920SOL     OW43200   5.609   3.466   3.011  0.3825 -0.0841 -0.0640
13920SOL    HW143201   5.633   3.511   2.930  0.4764  0.4980  0.2818
13920SOL    HW243202   5.554   3.528   3.058 -0.0904 -0.6168  0.0904
13921SOL     OW43203   4.527   2.708   4.492  0.5610  0.3264  0.4561
13921SOL    HW143204   4.563   2.790   4.526  2.4726 -0.3106  0.0884
13921SOL    HW243205   4.468   2.734   4.421 -0.2867  1.4428  1.5374
13922SOL     OW43206   4.938   0.897   5.619  0.7257 -0.1084 -0.2507
13922SOL    HW143207   4.939   0.878   5.525 -0.4767 -0.1170 -0.2661
13922SOL    HW243208   5.026   0.871   5.649  1.0833 -0.2128 -1.3396
13923SOL     OW43209   5.314   3.279   5.859  0.0969 -0.4346  0.1676
13923SOL    HW143210   5.258   3.357   5.860  1.5160  0.6343  0.0916
13923SOL    HW243211   5.380   3.297   5.792  1.7163 -0.7357  1.5840
13924SOL     OW43212   2.830   3.525   7.082 -0.2101  0.3922  0.4580
13924SOL    HW143213   2.864   3.574   7.007  1.0149  0.1719  0.8389
13924SOL    HW243214   2.908   3.484   7.120 -0.8275  0.4366  1.8072
13925SOL     OW43215   4.655   2.734   7.132  0.0859 -0.0298  0.4370
13925SOL    HW143216   4.615   2.668   7.075 -0.8051  1.3257 -0.5671
13925SOL    HW243217   4.581   2.776   7.175  0.6554  0.2087  1.1974
13926SOL     OW43218   2.579   1.951   6.147 -0.0459 -0.2234  0.0422
13926SOL    HW143219   2.608   2.038   6.118 -0.1328  0.0448  0.7347
13926SOL    HW243220   2.639   1.890   6.103  0.8312  0.2608  0.5347
13927SOL     OW43221   5.932   4.146   5.487  0.3925 -0.0703 -0.3569
13927SOL    HW143222   5.955   4.238   5.477 -0.1336 -0.0301 -1.2735
13927SOL    HW243223   5.911   4.136   5.580 -0.4409  0.9540 -0.4201
13928SOL     OW43224   3.804   2.462   5.947 -0.2813  0.3483  0.3443
13928SOL    HW143225   3.774   2.552   5.957 -1.7204  0.0222 -0.6779
13928SOL    HW243226   3.789   2.442   5.855  0.3460 -0.8324  0.4818
13929SOL     OW43227   6.146   1.144   5.776  0.2024 -0.3143  0.3931
13929SOL    HW143228   6.110   1.232   5.777 -1.4285 -0.9295 -0.5090
13929SOL    HW243229   6.127   1.110   5.864 -0.1503 -0.1270  0.3937
13930SOL     OW43230   4.535   2.926   6.033 -0.4039 -0.1240  0.0085
13930SOL    HW143231   4.507   2.869   6.105  0.0416  2.0201  2.0122
13930SOL    HW243232   4.494   3.011   6.053 -0.7049  0.4221 -2.6025
13931SOL     OW43233   3.211   1.511   4.171 -0.1160  0.0309 -0.1261
13931SOL    HW143234   3.227   1.605   4.165 -0.4239  0.1041  0.1359
13931SOL    HW243235   3.176   1.487   4.085  0.3603  0.0730 -0.3352
13932SOL     OW43236   4.434   1.825   5.821  0.7413 -0.0248  0.3024
13932SOL    HW143237   4.515   1.871   5.799  0.5082  0.7284  0.9850
13932SOL    HW243238   4.411   1.857   5.908 -0.6098  0.2225 -0.1206
13933SOL     OW43239   5.089   3.605   7.174  0.0459 -0.9096 -0.0689
13933SOL    HW143240   5.123   3.523   7.209  0.8261 -0.3573  0.5156
13933SOL    HW243241   5.155   3.670   7.198 -0.7041 -0.0599 -0.2613
13934SOL     OW43242   3.599   2.702   6.711  0.1716 -0.2860  0.2808
13934SOL    HW143243   3.519   2.727   6.758 -0.1676  0.6337 -0.7445
13934SOL    HW243244   3.591   2.745   6.626  0.8660 -1.7384 -0.5548
13935SOL     OW43245   5.213   2.956   6.412  0.1670 -0.9028 -0.6318
13935SOL    HW143246   5.137   2.966   6.469  2.0131  1.9217  1.6414
13935SOL    HW243247   5.220   2.862   6.398 -2.6737 -1.4021  0.5478
13936SOL     OW43248   4.473   2.773   6.254 -0.2167  0.3381 -0.5356
13936SOL    HW143249   4.491   2.688   6.215  0.0020  0.4463 -0.6744
13936SOL    HW243250   4.405   2.756   6.320 -0.4883  0.1306 -0.8669
13937SOL     OW43251   3.537   3.269   5.913  0.0217 -0.0834  0.8194
13937SOL    HW143252   3.601   3.336   5.937 -2.3424  2.6426  0.1502
13937SOL    HW243253   3.573   3.228   5.835  0.3775  2.4442 -0.4600
13938SOL     OW43254   5.219   3.015   5.698 -0.5639 -0.2794  0.3191
13938SOL    HW143255   5.186   3.104   5.683 -0.8213 -0.4445 -0.1074
13938SOL    HW243256   5.312   3.020   5.674 -0.9016 -0.4679 -1.1288
13939SOL     OW43257   6.315   4.393   8.870  0.6051  0.5524 -0.2287
13939SOL    HW143258   6.306   4.416   8.963  0.4735  2.3936 -0.6595
13939SOL    HW243259   6.346   4.473   8.828  2.0989 -0.6606 -1.5728
13940SOL     OW43260   2.769   2.358   6.910 -0.6327 -0.3709  0.5290
13940SOL    HW143261   2.693   2.402   6.872 -0.3133 -0.0794  0.2269
13940SOL    HW243262   2.842   2.380   6.851 -0.1983 -0.1788  1.1316
13941SOL     OW43263   5.257   3.231   7.677 -0.7213 -0.1918 -0.0451
13941SOL    HW143264   5.255   3.138   7.653 -1.0059 -0.2117  0.0542
13941SOL    HW243265   5.167   3.260   7.669 -0.6042  0.1210 -0.2343
13942SOL     OW43266   5.144   3.179   6.143  0.5987  0.5730  0.4685
13942SOL    HW143267   5.154   3.262   6.191  0.1226  0.8593  0.0852
13942SOL    HW243268   5.058   3.146   6.170  0.9833 -0.0431  0.9801
13943SOL     OW43269   4.748   3.337   5.650  0.3920  0.0141  0.0246
13943SOL    HW143270   4.664   3.302   5.620  1.2545 -1.5341 -0.7098
13943SOL    HW243271   4.730   3.371   5.738 -0.7682 -1.2753  0.3234
13944SOL     OW43272   5.269   3.810   7.211 -0.3577 -0.1574 -0.6490
13944SOL    HW143273   5.314   3.767   7.284  0.8364 -1.0050 -1.8332
13944SOL    HW243274   5.331   3.877   7.181 -1.3232  0.9740 -0.1801
13945SOL     OW43275   4.926   3.549   6.959 -0.0574 -0.4910  0.0200
13945SOL    HW143276   4.976   3.554   6.878  0.4777 -1.9423  0.2283
13945SOL    HW243277   4.988   3.574   7.027 -0.2006 -0.3111  0.0841
13946SOL     OW43278   3.244   1.042   6.736  0.6112  0.2713  0.2331
13946SOL    HW143279   3.331   1.003   6.736  0.3327 -0.4383 -1.4446
13946SOL    HW243280   3.184   0.967   6.735 -0.0015  0.7547  0.1422
13947SOL     OW43281   3.518   3.224   6.203  0.0418 -0.0694 -0.2447
13947SOL    HW143282   3.553   3.310   6.226  1.3758 -0.6574 -0.0242
13947SOL    HW243283   3.532   3.217   6.109 -1.7527  0.6830 -0.6076
13948SOL     OW43284   5.497   3.768   4.539  0.3885  0.0002  0.6615
13948SOL    HW143285   5.536   3.830   4.477 -1.8875  0.4544 -0.4606
13948SOL    HW243286   5.449   3.823   4.601 -2.5530 -0.4554 -0.9681
13949SOL     OW43287   4.269   2.751   5.504 -0.0900  0.4608 -0.0315
13949SOL    HW143288   4.244   2.776   5.593  0.3564 -1.3059  0.6540
13949SOL    HW243289   4.198   2.782   5.449 -0.0525  2.1863  0.8463
13950SOL     OW43290   5.562   3.147   6.043  0.0284 -0.0351  0.2180
13950SOL    HW143291   5.515   3.079   6.091  0.9660 -1.6139 -0.9956
13950SOL    HW243292   5.502   3.174   5.974  0.6196 -1.6462 -0.9838
13951SOL     OW43293   4.975   1.972   6.991  0.2904 -0.1717 -0.1840
13951SOL    HW143294   4.974   2.032   7.066 -0.1169  0.0718 -0.3801
13951SOL    HW243295   5.060   1.988   6.949  0.6775 -0.5683  0.4233
13952SOL     OW43296   3.713   1.660   6.838 -0.0841 -0.1168  0.1433
13952SOL    HW143297   3.620   1.675   6.854  0.3934  1.3507  1.9514
13952SOL    HW243298   3.738   1.593   6.902  0.4247  0.6854  0.7965
13953SOL     OW43299   5.131   4.146   5.845 -0.1128  0.4329  0.0932
13953SOL    HW143300   5.080   4.226   5.858 -1.0127 -0.4229  2.0380
13953SOL    HW243301   5.134   4.104   5.931  3.0214 -0.0883 -0.1316
13954SOL     OW43302   4.686   2.271   6.958  0.1036 -0.1311  0.2567
13954SOL    HW143303   4.707   2.258   7.051  0.2384  0.7454  0.3560
13954SOL    HW243304   4.678   2.182   6.923 -0.6309 -0.4730  1.2532
13955SOL     OW43305   4.723   3.113   6.946 -0.3142  0.6381  0.5970
13955SOL    HW143306   4.695   3.198   6.981 -1.9551  0.9119 -1.1963
13955SOL    HW243307   4.715   3.123   6.851 -0.6755 -1.5726  0.3427
13956SOL     OW43308   4.175   2.020   6.681 -0.2420 -0.4323 -0.1295
13956SOL    HW143309   4.258   2.049   6.721  0.9908 -0.1493 -2.6902
13956SOL    HW243310   4.108   2.065   6.731  1.3469  2.0602 -0.0572
13957SOL     OW43311   4.910   3.111   6.267  0.6948 -0.5926 -0.3926
13957SOL    HW143312   4.819   3.139   6.268  0.4627 -1.3232  0.5703
13957SOL    HW243313   4.941   3.127   6.356  1.4714 -0.4824 -0.6754
13958SOL     OW43314   5.064   1.830   6.253 -0.5651  0.1687  0.9055
13958SOL    HW143315   5.106   1.849   6.169  0.8171  0.6526  1.6626
13958SOL    HW243316   5.104   1.747   6.281  0.6965  1.1192  2.0888
13959SOL     OW43317   2.748   3.406   6.183 -0.4271 -0.1405  0.5421
13959SOL    HW143318   2.752   3.357   6.266  0.7770  2.3601  2.0964
13959SOL    HW243319   2.839   3.425   6.162 -0.8188  0.8398 -0.3629
13960SOL     OW43320   3.014   2.040   7.780 -0.7117 -0.0989 -0.5770
13960SOL    HW143321   3.007   1.952   7.743 -0.0834 -0.2026 -0.4545
13960SOL    HW243322   3.077   2.030   7.852 -0.0703  0.6046 -1.0344
13961SOL     OW43323   4.834   1.971   6.068  0.6638  0.1951 -0.1697
13961SOL    HW143324   4.824   2.030   6.142  0.3816  0.4601 -0.4142
13961SOL    HW243325   4.803   2.022   5.993 -2.3835 -1.1851 -0.0231
13962SOL     OW43326   6.444   0.841   8.093 -0.4778 -0.4756  0.1465
13962SOL    HW143327   6.421   0.906   8.027 -1.8528 -1.2414 -0.1620
13962SOL    HW243328   6.416   0.757   8.056  1.7659 -1.3502  0.2938
13963SOL     OW43329   5.899   4.011   6.105  0.7235 -0.2410 -0.1114
13963SOL    HW143330   5.849   3.969   6.035 -0.3103 -0.7874  0.9334
13963SOL    HW243331   5.988   3.978   6.093  0.8599  0.6345 -1.9043
13964SOL     OW43332   2.849   2.541   5.211 -0.6245  0.5798  0.2259
13964SOL    HW143333   2.920   2.597   5.180 -1.1448  0.9704 -0.2904
13964SOL    HW243334   2.854   2.547   5.307  0.5870 -0.1182  0.2290
13965SOL     OW43335   4.231   2.832   6.016  0.3566  0.6072  0.1370
13965SOL    HW143336   4.325   2.850   6.020  0.6306 -0.2776 -1.4520
13965SOL    HW243337   4.216   2.803   5.926 -1.5084  1.0340  0.2661
13966SOL     OW43338   2.973   3.759   5.860 -0.2653  0.5039  0.4468
13966SOL    HW143339   2.897   3.702   5.872 -1.0875  1.0971 -1.5004
13966SOL    HW243340   3.048   3.700   5.866 -1.0674 -0.7188 -0.9055
13967SOL     OW43341   7.258   3.437   5.838  0.0494 -0.8129  0.4999
13967SOL    HW143342   7.196   3.414   5.769 -0.1754 -0.8372  0.7063
13967SOL    HW243343   7.278   3.530   5.823 -1.0077 -0.4551  1.1684
13968SOL     OW43344   5.194   2.618   8.806  0.4849 -0.5185 -0.0428
13968SOL    HW143345   5.177   2.536   8.759  2.2300 -0.8440 -0.1773
13968SOL    HW243346   5.237   2.674   8.742 -1.4289  0.8522 -0.1944
13969SOL     OW43347   5.242   3.995   5.595 -0.4668  0.2287 -0.0993
13969SOL    HW143348   5.247   3.900   5.588 -0.2906  0.2207  0.1232
13969SOL    HW243349   5.200   4.011   5.680 -0.0883  0.3551  0.0655
13970SOL     OW43350   6.903   2.462   7.666  0.3205  0.1544  0.1755
13970SOL    HW143351   6.905   2.514   7.746  0.2357  1.7205 -0.7952
13970SOL    HW243352   6.811   2.438   7.656  0.2562  0.3279  0.3273
13971SOL     OW43353   2.611   1.240   7.967 -0.5633 -0.2301  0.5142
13971SOL    HW143354   2.585   1.331   7.954 -1.0944 -0.2116  1.5688
13971SOL    HW243355   2.704   1.245   7.989 -0.7152  0.1076  1.0944
13972SOL     OW43356   5.806   1.263   7.123 -0.1241 -0.1765  0.1921
13972SOL    HW143357   5.872   1.198   7.101 -0.5993 -1.3345  1.9396
13972SOL    HW243358   5.764   1.284   7.040  1.0364 -0.9930 -0.6269
13973SOL     OW43359   5.195   1.889   6.017 -0.5049  0.4540 -0.3197
13973SOL    HW143360   5.103   1.912   6.000 -0.4748  1.9376  1.2575
13973SOL    HW243361   5.245   1.965   5.987  0.0092  0.5915  0.8571
13974SOL     OW43362   2.317   3.007   6.345 -0.5449  0.3809  0.1358
13974SOL    HW143363   2.245   2.986   6.404 -0.9073 -1.1987 -0.8160
13974SOL    HW243364   2.277   3.007   6.258  0.4342  0.3529 -0.3262
13975SOL     OW43365   2.973   2.263   7.645  0.0301  0.3669  0.0843
13975SOL    HW143366   2.979   2.242   7.552  1.7532  0.7369  0.0832
13975SOL    HW243367   2.987   2.180   7.690  2.4836  0.6726  0.0174
13976SOL     OW43368   5.406   3.037   7.230 -0.2161  0.0318 -0.3978
13976SOL    HW143369   5.476   3.012   7.170 -0.8762 -0.3917 -1.0108
13976SOL    HW243370   5.357   2.956   7.245  0.0002  0.1155  0.7997
13977SOL     OW43371   4.210   2.772   6.339  0.0504 -0.5062  0.6410
13977SOL    HW143372   4.173   2.767   6.251  1.6278 -1.8163 -0.0113
13977SOL    HW243373   4.205   2.683   6.373 -0.1297 -0.1071  1.7240
13978SOL     OW43374   4.034   2.752   5.318 -0.6948 -0.0228 -0.3184
13978SOL    HW143375   4.029   2.703   5.236  0.5095  0.7085 -0.8641
13978SOL    HW243376   4.055   2.841   5.290 -0.2757  0.2335  0.7926
13979SOL     OW43377   5.065   2.691   6.500  0.5908  0.7884  0.2240
13979SOL    HW143378   5.026   2.613   6.461  3.1834 -0.7321  0.4244
13979SOL    HW243379   4.993   2.731   6.549 -0.6472 -2.0805  1.0014
13980SOL     OW43380   6.550   3.852   3.744 -0.0186 -0.3106  0.2552
13980SOL    HW143381   6.615   3.783   3.734  0.0547 -0.2270  0.1518
13980SOL    HW243382   6.598   3.933   3.724 -0.4118 -0.3416 -0.8869
13981SOL     OW43383   2.779   0.699   7.173  0.1038 -0.5547  0.4505
13981SOL    HW143384   2.766   0.619   7.123  0.6240 -0.3554 -0.0121
13981SOL    HW243385   2.760   0.770   7.111  0.8392 -0.3051  0.5002
13982SOL     OW43386   0.066   7.478   6.143  0.3008  0.4728 -0.3892
13982SOL    HW143387   0.049   7.522   6.059 -1.7578 -0.7049 -0.6701
13982SOL    HW243388   0.048   7.386   6.125  1.2717 -0.0039  0.9997
13983SOL     OW43389   4.749   2.837   6.315 -0.3057 -0.0424 -0.3179
13983SOL    HW143390   4.684   2.773   6.287 -0.1963 -0.5241  0.4968
13983SOL    HW243391   4.700   2.919   6.326 -0.9403 -0.5716  1.0082
13984SOL     OW43392   5.544   4.005   6.741 -0.4271 -0.3370 -0.1507
13984SOL    HW143393   5.575   4.088   6.704 -0.7519 -1.0528 -2.1451
13984SOL    HW243394   5.452   4.022   6.764 -0.1106  0.2304  0.7636
13985SOL     OW43395   3.802   1.760   6.078 -0.0533  0.1862 -0.1224
13985SOL    HW143396   3.864   1.831   6.062  0.6057 -0.6010 -1.1516
13985SOL    HW243397   3.729   1.779   6.019 -0.0585  0.2179 -0.1058
13986SOL     OW43398   2.785   1.597   7.711  0.2020 -0.5448 -0.2328
13986SOL    HW143399   2.740   1.615   7.793  0.5355  0.7858 -0.3104
13986SOL    HW243400   2.770   1.675   7.658  0.6218 -1.0704 -1.1532
13987SOL     OW43401   3.521   1.312   6.168 -0.6882 -0.0753  0.5591
13987SOL    HW143402   3.569   1.251   6.112 -1.1367  1.2062 -1.3063
13987SOL    HW243403   3.586   1.340   6.233  0.0108 -1.1793  0.3668
13988SOL     OW43404   4.551   0.195   6.135 -0.1189 -0.5288  0.4623
13988SOL    HW143405   4.480   0.229   6.189 -1.1060 -0.4425 -0.8555
13988SOL    HW243406   4.530   0.102   6.124  1.1800 -1.0454  1.8746
13989SOL     OW43407   4.795   3.216   8.110 -0.1717 -0.2333  0.2912
13989SOL    HW143408   4.756   3.270   8.040  0.4825  0.7157  0.6346
13989SOL    HW243409   4.762   3.256   8.191  0.3206 -0.3548  0.5514
13990SOL     OW43410   6.481   2.801   6.998  0.2824  0.3406 -0.0235
13990SOL    HW143411   6.495   2.796   7.093 -0.0327 -2.0575 -0.0306
13990SOL    HW243412   6.568   2.792   6.960  0.3061  0.3213  0.0355
13991SOL     OW43413   5.560   3.895   7.354 -0.4892  0.0816 -0.9279
13991SOL    HW143414   5.469   3.897   7.381 -0.4589  0.0326 -0.8236
13991SOL    HW243415   5.607   3.858   7.428 -0.4216 -0.1583 -1.0900
13992SOL     OW43416   5.136   3.458   6.177 -0.1958  0.6193 -0.1392
13992SOL    HW143417   5.107   3.500   6.097 -0.5725  1.3807  0.3876
13992SOL    HW243418   5.224   3.493   6.192  0.6618 -0.9272 -1.1927
13993SOL     OW43419   5.693   3.611   7.323 -0.3098  0.3090 -0.7974
13993SOL    HW143420   5.722   3.521   7.307 -1.5684 -0.6185  1.6707
13993SOL    HW243421   5.603   3.603   7.355 -0.2072  2.3648  0.2161
13994SOL     OW43422   5.473   3.356   6.367  0.5148 -0.5286  0.2549
13994SOL    HW143423   5.526   3.395   6.436 -0.5715 -1.0219  1.4100
13994SOL    HW243424   5.470   3.263   6.389 -1.5585 -0.3890  0.7638
13995SOL     OW43425   6.411   2.269   7.379 -0.0474 -0.1709 -0.5273
13995SOL    HW143426   6.350   2.210   7.335 -2.5080  1.9841 -0.1911
13995SOL    HW243427   6.419   2.344   7.320 -0.4560  1.0902  0.9528
13996SOL     OW43428   4.720   3.395   6.873  0.1065 -0.0487  0.5636
13996SOL    HW143429   4.796   3.442   6.908 -0.1006  1.1758 -0.5501
13996SOL    HW243430   4.651   3.409   6.937  1.2155 -2.6801  2.5268
13997SOL     OW43431   5.639   2.679   8.121  0.6372 -0.3411 -0.3806
13997SOL    HW143432   5.565   2.667   8.061  0.3911 -0.0085 -0.1448
13997SOL    HW243433   5.664   2.591   8.147 -0.5062 -0.4012  0.5540
13998SOL     OW43434   5.537   1.521   7.059 -0.6278 -0.3299  0.0809
13998SOL    HW143435   5.455   1.547   7.016 -1.7045  0.1834  2.2865
13998SOL    HW243436   5.514   1.513   7.152  1.7788 -0.4173  0.7413
13999SOL     OW43437   6.483   4.616   7.372  0.0362 -0.1382  0.3960
13999SOL    HW143438   6.422   4.545   7.392  1.6567 -1.6191  0.3724
13999SOL    HW243439   6.458   4.687   7.431 -1.9721 -0.5101  0.0563
14000SOL     OW43440   6.835   3.320   7.857  0.0459 -0.3050  0.2099
14000SOL    HW143441   6.817   3.261   7.783 -1.3473  1.3528 -0.8433
14000SOL    HW243442   6.787   3.282   7.930 -2.0677  0.2497 -0.8189
14001SOL     OW43443   3.086   3.067   5.182  0.0224 -0.6021 -0.1933
14001SOL    HW143444   3.059   3.024   5.101  2.2105 -2.3924 -0.0645
14001SOL    HW243445   3.163   3.118   5.158 -0.1652  0.0155  0.4846
14002SOL     OW43446   3.621   2.335   6.563 -0.6694  0.4249  0.3089
14002SOL    HW143447   3.545   2.384   6.531  0.6922  0.4779 -3.3237
14002SOL    HW243448   3.638   2.271   6.494  2.1394 -0.0531  1.3458
14003SOL     OW43449   4.293   2.154   6.463 -0.2787 -0.0141 -0.0841
14003SOL    HW143450   4.243   2.152   6.381  0.0611 -1.5480 -0.2933
14003SOL    HW243451   4.253   2.087   6.517 -0.0478  0.5068  0.7410
14004SOL     OW43452   3.635   4.534   6.746  0.6701  0.1485  0.5290
14004SOL    HW143453   3.606   4.479   6.819 -1.1933 -0.6317 -0.7226
14004SOL    HW243454   3.685   4.474   6.690  0.9256  0.3989  0.4900
14005SOL     OW43455   4.115   2.370   4.567 -0.2214 -0.0745  0.3303
14005SOL    HW143456   4.034   2.400   4.608 -2.2077  0.4616 -3.5512
14005SOL    HW243457   4.175   2.444   4.575 -0.9249  0.4253  1.1153
14006SOL     OW43458   3.418   2.332   6.889 -0.9777  0.3536 -0.2931
14006SOL    HW143459   3.420   2.424   6.863  2.1305  0.1419 -1.2971
14006SOL    HW243460   3.363   2.289   6.823 -2.2323  1.4190  0.0337
14007SOL     OW43461   3.840   1.693   5.637  0.4651  0.6458  0.5709
14007SOL    HW143462   3.842   1.705   5.542 -2.6818 -0.3530  0.2636
14007SOL    HW243463   3.885   1.610   5.653 -0.2483  0.0901 -0.2435
14008SOL     OW43464   5.675   4.084   8.254 -0.2935  0.5776  0.0795
14008SOL    HW143465   5.612   4.141   8.211  0.1190  0.1422 -1.1208
14008SOL    HW243466   5.635   4.065   8.339 -2.3155 -0.5707 -1.0475
14009SOL     OW43467   5.759   2.075   4.652 -0.0260  0.2254 -0.3406
14009SOL    HW143468   5.758   2.133   4.728  0.2689 -0.4208  0.1676
14009SOL    HW243469   5.815   2.002   4.678 -0.0489 -0.0822 -1.1232
14010SOL     OW43470   4.035   1.947   8.098 -0.2900  0.0099 -0.1466
14010SOL    HW143471   3.988   1.897   8.165  0.1905  2.4907  2.2154
14010SOL    HW243472   3.967   1.978   8.038 -1.2723  0.7198  1.2835
14011SOL     OW43473   4.307   2.467   6.032  0.5882  0.4660  0.0186
14011SOL    HW143474   4.222   2.503   6.008  0.3195  0.1109  0.4202
14011SOL    HW243475   4.309   2.380   5.993  0.7219  0.4297  0.1033
14012SOL     OW43476   6.013   2.931   8.358 -0.1827 -0.4665  0.5587
14012SOL    HW143477   6.105   2.906   8.366  0.2658  0.4457 -1.2876
14012SOL    HW243478   5.981   2.883   8.282 -1.6214 -1.7183  1.8732
14013SOL     OW43479   4.194   2.255   7.784 -0.2161 -0.5495  0.1723
14013SOL    HW143480   4.232   2.241   7.871  2.4204 -2.0384 -1.0863
14013SOL    HW243481   4.256   2.314   7.741  0.0433 -2.0057 -1.5412
14014SOL     OW43482   4.613   3.493   5.294  0.2741 -0.1599  0.0397
14014SOL    HW143483   4.623   3.404   5.327  0.4566 -0.1398  0.0353
14014SOL    HW243484   4.553   3.484   5.219  0.5095 -0.3146 -0.1292
14015SOL     OW43485   5.032   2.577   6.177 -0.1180  0.2727  0.6033
14015SOL    HW143486   5.017   2.527   6.258 -1.2932 -0.8815 -0.2825
14015SOL    HW243487   4.947   2.616   6.157 -0.4343 -1.2262 -1.1986
14016SOL     OW43488   4.622   0.959   6.474 -0.1175  0.1242  0.5521
14016SOL    HW143489   4.665   0.960   6.560  0.5512  1.0279  0.2205
14016SOL    HW243490   4.529   0.952   6.494  0.0166  0.5356  1.3599
14017SOL     OW43491   2.726   0.121   7.890  0.3462  0.3417  0.0455
14017SOL    HW143492   2.760   0.059   7.955  0.2446 -0.5568 -0.7285
14017SOL    HW243493   2.794   0.123   7.822  0.9604  2.1032  0.6579
14018SOL     OW43494   3.865   2.137   6.733  0.2537 -0.4837 -0.3225
14018SOL    HW143495   3.821   2.220   6.752  1.3584  0.5400 -1.9969
14018SOL    HW243496   3.872   2.134   6.638  0.2889 -2.5082 -0.3152
14019SOL     OW43497   4.341   2.204   5.966 -0.4746  0.1217 -0.0956
14019SOL    HW143498   4.258   2.155   5.964  0.1123 -0.9092 -0.1208
14019SOL    HW243499   4.403   2.144   6.008  0.7289  0.1176 -1.7890
14020SOL     OW43500   4.440   1.500   6.104  0.5194 -0.4040  0.1388
14020SOL    HW143501   4.384   1.441   6.154 -1.1702  0.4747 -0.6009
14020SOL    HW243502   4.512   1.521   6.163 -1.2583  0.4123  2.1806
14021SOL     OW43503   6.053   1.243   6.221 -0.2248 -0.1198  0.1610
14021SOL    HW143504   6.000   1.191   6.281  0.0371 -0.5152  0.0561
14021SOL    HW243505   6.139   1.201   6.224  0.6580  1.6747  1.8224
14022SOL     OW43506   2.996   3.466   6.114  0.6549  0.1010  0.2655
14022SOL    HW143507   3.026   3.475   6.023  0.5421 -0.9790  0.1053
14022SOL    HW243508   3.056   3.521   6.164  1.6033 -0.3613 -0.3130
14023SOL     OW43509   5.898   3.671   8.602  0.1487  0.0309  0.3588
14023SOL    HW143510   5.850   3.657   8.683 -1.1680 -1.1957 -0.5959
14023SOL    HW243511   5.855   3.746   8.561 -0.6031 -0.6936 -0.2088
14024SOL     OW43512   3.297   3.140   9.312 -0.5567  0.6384 -0.4289
14024SOL    HW143513   3.381   3.106   9.343 -1.2663 -2.1679 -1.2685
14024SOL    HW243514   3.320   3.219   9.262  1.3245  1.0636  1.0090
14025SOL     OW43515   5.565   2.691   6.671  0.0136  0.0495  0.0889
14025SOL    HW143516   5.624   2.638   6.724 -0.1397  0.0984  0.3076
14025SOL    HW243517   5.620   2.763   6.639  0.2204 -0.2356 -0.2070
14026SOL     OW43518   5.647   2.439   5.423 -0.3386  0.2124  0.7082
14026SOL    HW143519   5.715   2.506   5.421 -1.1748  1.0713  0.3535
14026SOL    HW243520   5.565   2.487   5.412 -1.1240 -0.6451  2.3520
14027SOL     OW43521   4.670   3.296   6.461 -0.0719  0.1540  0.3685
14027SOL    HW143522   4.600   3.361   6.467 -0.3962  0.1887 -2.3405
14027SOL    HW243523   4.746   3.346   6.430  0.5396 -0.2625  1.1692
14028SOL     OW43524   5.437   2.713   6.431  0.1921  0.0807  0.4046
14028SOL    HW143525   5.478   2.686   6.513  0.3521  0.3614  0.4177
14028SOL    HW243526   5.434   2.633   6.379  2.9621  0.4891 -0.5330
14029SOL     OW43527   3.127   3.769   7.390  0.1569 -0.4092  0.2383
14029SOL    HW143528   3.145   3.805   7.303  0.9347  1.4887  1.1509
14029SOL    HW243529   3.194   3.702   7.403  0.0759 -0.6606 -0.5629
14030SOL     OW43530   5.334   3.128   6.914  0.0657 -0.3528 -0.4130
14030SOL    HW143531   5.318   3.188   6.987  0.6901 -0.0753 -0.5007
14030SOL    HW243532   5.357   3.185   6.841 -0.4444 -0.6390 -0.7991
14031SOL     OW43533   5.297   3.214   7.952  0.1093 -0.4724 -0.3744
14031SOL    HW143534   5.276   3.122   7.965  1.0885 -0.7021 -0.3361
14031SOL    HW243535   5.269   3.233   7.862 -0.0824 -0.8042 -0.3858
14032SOL     OW43536   5.190   2.647   6.986  0.3033 -0.4756  0.3076
14032SOL    HW143537   5.112   2.615   7.032 -0.1413 -0.9931 -0.7744
14032SOL    HW243538   5.168   2.639   6.893  1.1382  0.6703 -0.0020
14033SOL     OW43539   4.750   3.115   7.651  0.1420 -0.6726  0.0608
14033SOL    HW143540   4.736   3.185   7.587  3.0441 -0.4527 -0.5035
14033SOL    HW243541   4.834   3.137   7.691  0.1162 -2.7523  1.3688
14034SOL     OW43542   4.979   3.143   7.800 -0.0343  0.1209 -0.2835
14034SOL    HW143543   4.989   3.223   7.748 -2.8401  0.6407 -0.1801
14034SOL    HW243544   4.943   3.174   7.884 -1.4701 -1.2418 -0.3558
14035SOL     OW43545   4.214   1.910   8.999 -0.0671 -0.3653 -0.1482
14035SOL    HW143546   4.296   1.862   9.012  0.3423  0.5247  0.6287
14035SOL    HW243547   4.239   1.989   8.951 -0.6888 -0.7341 -1.1200
14036SOL     OW43548   4.603   3.666   4.899  0.0789  0.3003 -0.4455
14036SOL    HW143549   4.551   3.666   4.819  0.3417  2.0487 -0.6691
14036SOL    HW243550   4.659   3.743   4.891  1.3521 -0.4667  0.6543
14037SOL     OW43551   5.839   2.064   5.949 -0.0799 -0.4174 -0.0778
14037SOL    HW143552   5.759   2.013   5.937 -0.2810 -0.1351  0.0502
14037SOL    HW243553   5.812   2.139   6.002 -0.0986  0.5712 -1.4259
14038SOL     OW43554   4.206   2.825   8.170 -0.0839  0.4039  0.2930
14038SOL    HW143555   4.270   2.896   8.164  0.5508  0.3549  4.1359
14038SOL    HW243556   4.135   2.861   8.223 -0.8259 -1.1527  0.4066
14039SOL     OW43557   3.602   1.929   4.939  0.3741  0.1554  0.4257
14039SOL    HW143558   3.591   2.015   4.980  3.2488  1.6039 -1.5005
14039SOL    HW243559   3.583   1.944   4.846 -0.2665 -1.6088  0.2376
14040SOL     OW43560   2.626   1.468   5.954 -0.2249  0.1344  0.1599
14040SOL    HW143561   2.599   1.379   5.977 -0.9231  0.4694  0.6839
14040SOL    HW243562   2.661   1.461   5.866 -1.2059 -0.4858 -0.1928
14041SOL     OW43563   2.522   3.093   5.838 -0.0307  0.1261  0.4724
14041SOL    HW143564   2.564   3.105   5.753  0.3524  0.4331  0.6973
14041SOL    HW243565   2.577   3.143   5.898  1.5505 -2.5824  1.4514
14042SOL     OW43566   5.506   3.667   5.830 -0.0599 -0.0241  0.4319
14042SOL    HW143567   5.491   3.761   5.838  4.3276  1.1082 -1.5550
14042SOL    HW243568   5.497   3.649   5.737  0.6273 -1.1994  0.5655
14043SOL     OW43569   5.434   4.234   8.233  0.6319 -0.0649 -0.0737
14043SOL    HW143570   5.357   4.179   8.215  0.4842  0.2781 -0.5014
14043SOL    HW243571   5.435   4.298   8.162  1.3251 -0.0770 -0.0810
14044SOL     OW43572   4.847   2.924   7.102  0.4127 -0.4214  0.2988
14044SOL    HW143573   4.781   2.855   7.105 -1.2873  1.1379  0.5564
14044SOL    HW243574   4.806   2.994   7.052  2.0971  0.3969  0.0156
14045SOL     OW43575   6.074   1.439   7.527  0.1538  0.2634 -0.6327
14045SOL    HW143576   6.012   1.367   7.534 -0.1184  0.6789  2.1290
14045SOL    HW243577   6.020   1.513   7.499 -0.1756  0.1013 -0.4448
14046SOL     OW43578   5.714   3.268   4.202 -0.4279  0.2300  0.6018
14046SOL    HW143579   5.719   3.225   4.288 -1.3514  0.6535  0.8720
14046SOL    HW243580   5.687   3.358   4.221 -0.0842  0.4880 -0.0927
14047SOL     OW43581   4.665   3.341   8.320  0.2607 -0.1261 -0.0132
14047SOL    HW143582   4.663   3.329   8.415 -1.9733 -0.1504 -0.0111
14047SOL    HW243583   4.586   3.391   8.301  1.1111  0.6194 -1.7861
14048SOL     OW43584   4.595   2.270   7.226 -0.5606  0.0547 -0.2118
14048SOL    HW143585   4.534   2.340   7.204 -0.5929  1.4059  3.4636
14048SOL    HW243586   4.541   2.202   7.266  0.0686  0.6281  1.7326
14049SOL     OW43587   5.329   3.293   7.157 -0.0629 -0.1300 -0.0131
14049SOL    HW143588   5.236   3.295   7.182 -0.5421  0.4897 -1.6757
14049SOL    HW243589   5.360   3.207   7.187 -2.1611 -1.9449 -2.5249
14050SOL     OW43590   5.349   2.293   7.785  1.0584 -0.4445 -0.2771
14050SOL    HW143591   5.320   2.365   7.729  1.4260  0.1910  0.3373
14050SOL    HW243592   5.350   2.216   7.727 -1.4725 -0.4530 -0.4382
14051SOL     OW43593   3.794   2.213   9.005  0.0163 -0.3232 -0.3376
14051SOL    HW143594   3.802   2.132   9.055 -0.5387 -0.4879 -0.5071
14051SOL    HW243595   3.699   2.226   8.996  0.1054 -0.0348 -0.9157
14052SOL     OW43596   5.418   3.526   6.181 -0.6792 -0.0238 -0.0182
14052SOL    HW143597   5.480   3.596   6.204 -1.0728  0.2188  0.3170
14052SOL    HW243598   5.441   3.454   6.239 -0.4870 -0.0566 -0.1345
14053SOL     OW43599   5.704   2.977   7.833 -0.1621  0.2120 -0.2868
14053SOL    HW143600   5.626   2.939   7.874 -0.0295 -0.4673 -0.6376
14053SOL    HW243601   5.767   2.905   7.833  0.9685  1.1397  1.2555
14054SOL     OW43602   3.626   2.012   5.400  0.6558 -0.2810  0.0594
14054SOL    HW143603   3.595   2.102   5.389  2.5035  0.6324  1.5257
14054SOL    HW243604   3.721   2.018   5.386  0.6869 -2.2514 -0.9206
14055SOL     OW43605   6.050   4.298   4.840  0.1079  0.2498  0.0561
14055SOL    HW143606   5.961   4.333   4.849 -0.0588 -0.0608 -0.3696
14055SOL    HW243607   6.048   4.215   4.887  0.0086 -0.0377 -0.4506
14056SOL     OW43608   5.302   3.532   6.538 -0.3233  0.2279  0.3568
14056SOL    HW143609   5.283   3.625   6.538  1.5546  0.6532 -0.4411
14056SOL    HW243610   5.352   3.517   6.458 -0.5256 -1.4488  0.5084
14057SOL     OW43611   4.450   2.986   6.721 -0.4347 -0.1711 -0.4422
14057SOL    HW143612   4.433   2.980   6.627  0.8761 -0.6342 -0.6726
14057SOL    HW243613   4.511   3.058   6.730  1.7918 -1.9499 -0.3407
14058SOL     OW43614   5.905   3.224   7.955  0.0795  0.2491 -0.1728
14058SOL    HW143615   5.842   3.269   8.010  1.1305  2.1162 -0.4232
14058SOL    HW243616   5.853   3.187   7.883 -0.7524  1.6066 -0.2854
14059SOL     OW43617   4.600   3.043   6.379 -0.1001 -0.7399 -0.1574
14059SOL    HW143618   4.633   3.129   6.404  0.1080 -0.9035  0.1480
14059SOL    HW243619   4.505   3.053   6.377 -0.0261 -0.0847 -1.7078
14060SOL     OW43620   5.134   2.923   8.489  0.5193 -0.5262 -0.4154
14060SOL    HW143621   5.175   2.987   8.431  0.3401  1.1196  1.1711
14060SOL    HW243622   5.042   2.949   8.493  0.3405 -1.1820 -0.1164
14061SOL     OW43623   4.204   1.330   7.346 -0.0278 -0.1273  0.1367
14061SOL    HW143624   4.220   1.326   7.252 -0.0471  1.6863  0.0216
14061SOL    HW243625   4.110   1.349   7.354 -0.1356 -0.7728  0.5608
14062SOL     OW43626   4.413   1.817   6.623  0.0789  0.2586  0.6130
14062SOL    HW143627   4.454   1.904   6.630 -0.6369  0.7015 -0.3796
14062SOL    HW243628   4.319   1.835   6.626 -0.0956 -0.3509 -0.7375
14063SOL     OW43629   3.262   2.303   6.638 -0.2755 -0.5336  0.2825
14063SOL    HW143630   3.181   2.281   6.593 -0.0335 -0.6433 -0.0988
14063SOL    HW243631   3.270   2.398   6.629 -0.5903 -0.4620  0.7118
14064SOL     OW43632   4.322   1.783   7.054 -0.3323  0.5452 -0.1115
14064SOL    HW143633   4.407   1.741   7.037 -0.8101 -0.0337 -1.1263
14064SOL    HW243634   4.331   1.819   7.143  0.9731  0.5026 -0.2021
14065SOL     OW43635   5.847   2.472   5.771 -0.0194  0.6527 -0.3199
14065SOL    HW143636   5.758   2.438   5.780  0.3966 -0.7660 -1.3324
14065SOL    HW243637   5.881   2.430   5.693  1.5928  1.1068  0.1033
14066SOL     OW43638   3.455   2.748   5.527  0.3488  0.3892  0.2011
14066SOL    HW143639   3.534   2.754   5.473  0.6770 -0.8230  0.5186
14066SOL    HW243640   3.485   2.710   5.610 -0.5384  0.0553  0.3785
14067SOL     OW43641   5.792   3.164   6.500 -0.5778 -0.0288  0.5397
14067SOL    HW143642   5.808   3.128   6.413  2.3243  0.4497  0.7791
14067SOL    HW243643   5.817   3.256   6.492 -0.8319  0.1586  1.7432
14068SOL     OW43644   4.115   1.565   6.642 -0.1822 -0.1192 -0.1517
14068SOL    HW143645   4.081   1.655   6.640  0.7358  0.2294 -1.6466
14068SOL    HW243646   4.102   1.533   6.552  2.3296 -0.3582 -0.5060
14069SOL     OW43647   5.293   2.785   7.270  0.0419 -0.5241 -0.2870
14069SOL    HW143648   5.203   2.815   7.283  0.2139 -0.2645  0.3972
14069SOL    HW243649   5.318   2.748   7.355  1.4929  1.8724  0.4137
14070SOL     OW43650   3.897   3.357   7.236 -0.1359 -0.2857  0.5899
14070SOL    HW143651   3.868   3.426   7.177 -0.2425 -0.2657  0.6649
14070SOL    HW243652   3.846   3.280   7.209  0.7110 -0.6017 -0.1586
14071SOL     OW43653   7.101   3.436   7.799 -0.5577  0.2311  0.0896
14071SOL    HW143654   7.053   3.465   7.877 -0.6725 -3.2702  1.4768
14071SOL    HW243655   7.033   3.417   7.735 -0.8592 -1.3524  0.8328
14072SOL     OW43656   5.170   2.040   7.709  0.2070  0.3791  0.0940
14072SOL    HW143657   5.248   1.987   7.689 -0.1351  0.2493 -0.9506
14072SOL    HW243658   5.097   1.979   7.698 -0.2329  1.1613 -1.6360
14073SOL     OW43659   4.833   2.534   5.436  0.2556  0.8525 -0.0027
14073SOL    HW143660   4.924   2.542   5.407  0.0465  0.1660 -0.8995
14073SOL    HW243661   4.818   2.611   5.491  0.6512  2.3418 -1.8474
14074SOL     OW43662   6.029   0.526   7.700 -0.7048  0.3525 -0.5304
14074SOL    HW143663   6.125   0.532   7.692 -0.4792 -0.9004  0.8519
14074SOL    HW243664   6.013   0.438   7.734 -2.4075  0.3441 -1.2376
14075SOL     OW43665   3.884   2.788   8.482  0.1179  0.1048  0.0208
14075SOL    HW143666   3.940   2.712   8.499 -1.1458 -1.0481 -0.7169
14075SOL    HW243667   3.928   2.836   8.413  0.6210 -0.3108  0.0480
14076SOL     OW43668   3.081   0.849   4.793 -0.3167 -0.1977  0.5071
14076SOL    HW143669   3.164   0.876   4.756 -1.5733  1.0578 -1.6019
14076SOL    HW243670   3.097   0.762   4.829  1.9564  0.1620  0.4738
14077SOL     OW43671   3.780   2.445   5.671 -0.1265  0.0799 -0.4021
14077SOL    HW143672   3.851   2.507   5.652 -0.2781  0.0837 -0.9783
14077SOL    HW243673   3.761   2.404   5.587 -0.8305  0.0965 -0.2570
14078SOL     OW43674   5.751   3.327   5.386 -0.4130 -0.0046  0.0559
14078SOL    HW143675   5.798   3.373   5.455 -1.0529  1.2333 -0.2980
14078SOL    HW243676   5.758   3.235   5.409 -1.9280  0.4469  2.6048
14079SOL     OW43677   5.419   3.202   8.597 -0.0639 -0.1721 -0.2108
14079SOL    HW143678   5.367   3.226   8.674 -0.3291 -0.4555 -0.2983
14079SOL    HW243679   5.437   3.286   8.554  1.8001  0.2387  1.2129
14080SOL     OW43680   3.792   2.392   6.804 -0.3471  0.3988  0.3621
14080SOL    HW143681   3.729   2.394   6.731  0.7705 -0.1601 -0.6654
14080SOL    HW243682   3.755   2.451   6.869 -1.6982  0.4442 -0.4010
14081SOL     OW43683   5.739   3.028   8.339 -0.3002  0.4965  0.1048
14081SOL    HW143684   5.835   3.025   8.342 -0.3012 -1.3122 -0.6849
14081SOL    HW243685   5.720   3.119   8.314  1.3122  0.3389 -1.9971
14082SOL     OW43686   3.676   2.159   6.344  0.1373  0.0010  0.4545
14082SOL    HW143687   3.614   2.094   6.310 -0.4900 -0.3373  2.1360
14082SOL    HW243688   3.712   2.200   6.266 -1.0648 -0.8670 -0.6163
14083SOL     OW43689   6.301   3.980   7.578 -0.4600 -0.1928 -0.3773
14083SOL    HW143690   6.316   4.006   7.669  0.2130 -0.0920 -0.5136
14083SOL    HW243691   6.285   3.886   7.583  0.7939 -0.4111 -0.2804
14084SOL     OW43692   1.958   3.024   6.326  0.0369  0.1359  0.2256
14084SOL    HW143693   1.867   3.027   6.352 -0.0198  0.2807  0.0130
14084SOL    HW243694   2.005   2.994   6.404  0.1982  2.9008  1.3065
14085SOL     OW43695   4.501   2.492   6.195  0.1554 -0.2805 -0.1421
14085SOL    HW143696   4.462   2.449   6.271 -1.5129  1.7031  0.1867
14085SOL    HW243697   4.432   2.492   6.129  0.1195  1.7507 -0.1606
14086SOL     OW43698   6.417   1.367   5.612  0.0331  0.0086 -0.3579
14086SOL    HW143699   6.395   1.274   5.621 -0.7189  0.3179  1.5173
14086SOL    HW243700   6.503   1.367   5.570  0.9948 -1.6561  1.4051
14087SOL     OW43701   5.373   1.325   4.992  0.2294  0.8181 -0.6426
14087SOL    HW143702   5.388   1.347   4.900 -1.3495 -0.7657 -1.3226
14087SOL    HW243703   5.429   1.249   5.009 -2.0835 -1.1838 -1.4130
14088SOL     OW43704   4.276   1.336   6.219  0.5117  0.5086  0.4865
14088SOL    HW143705   4.290   1.257   6.166 -1.0532  0.7976 -0.4592
14088SOL    HW243706   4.242   1.304   6.302 -2.8046  0.1459 -0.8360
14089SOL     OW43707   6.249   2.549   7.468  0.7050 -0.2881 -0.4041
14089SOL    HW143708   6.244   2.579   7.378  1.2139 -1.5802 -0.8835
14089SOL    HW243709   6.279   2.626   7.517  3.6937 -0.3697 -1.8456
14090SOL     OW43710   2.563   3.324   6.761 -0.3529 -0.2035 -0.1943
14090SOL    HW143711   2.641   3.275   6.789  1.0852  0.4904 -2.6714
14090SOL    HW243712   2.537   3.282   6.679 -0.6200  1.5320 -1.0495
14091SOL     OW43713   4.870   2.308   7.572  0.1556 -0.6545 -0.2645
14091SOL    HW143714   4.866   2.334   7.664  1.5164  0.6020 -0.5281
14091SOL    HW243715   4.786   2.336   7.535 -1.1497 -2.7248  0.9196
14092SOL     OW43716   3.567   2.046  10.630 -0.0454  0.0242 -0.6858
14092SOL    HW143717   3.568   1.967  10.685  0.6213  0.1970 -0.4444
14092SOL    HW243718   3.650   2.089  10.648 -0.0514  0.3658 -1.4357
14093SOL     OW43719   4.365   1.228  10.402  0.3981  0.4847 -0.3739
14093SOL    HW143720   4.447   1.245  10.355 -0.2716  0.9428 -1.4170
14093SOL    HW243721   4.300   1.281  10.356 -0.4965  0.0802  0.3989
14094SOL     OW43722   6.407   3.680   9.074  0.3381  0.2321 -0.1898
14094SOL    HW143723   6.340   3.732   9.029  1.8683  0.4011 -2.4210
14094SOL    HW243724   6.423   3.605   9.016 -0.3178 -1.6775  1.9619
14095SOL     OW43725   4.260   2.768  10.123 -0.1048 -0.0346 -0.2679
14095SOL    HW143726   4.196   2.809  10.180  0.5953 -2.6712  2.7091
14095SOL    HW243727   4.344   2.800  10.155  0.2976 -1.5311  0.2551
14096SOL     OW43728   5.182   3.532  10.089 -0.1134  0.2259  0.0545
14096SOL    HW143729   5.134   3.609  10.117  0.6955  0.4709  0.8007
14096SOL    HW243730   5.253   3.566  10.035 -0.1393 -0.0546 -0.1618
14097SOL     OW43731   3.169   3.422   9.170 -0.0667 -0.3251  0.6479
14097SOL    HW143732   3.204   3.458   9.251  1.0853 -2.1789  1.0436
14097SOL    HW243733   3.215   3.470   9.100 -0.5654  0.8038  1.0699
14098SOL     OW43734   2.845   3.373  10.428  0.4307 -0.0136  0.0225
14098SOL    HW143735   2.814   3.455  10.467  1.4489  0.7692 -0.7810
14098SOL    HW243736   2.906   3.399  10.360  1.1552 -1.4645  0.0677
14099SOL     OW43737   4.826   2.403   8.165 -0.4997 -0.5865 -0.0141
14099SOL    HW143738   4.802   2.490   8.198  1.4693  1.6288 -3.7749
14099SOL    HW243739   4.743   2.363   8.141 -1.3420  1.4511 -0.7749
14100SOL     OW43740   4.097   2.864  10.324 -0.0928 -0.5037 -0.1720
14100SOL    HW143741   4.041   2.940  10.338  0.2184 -0.5527  1.5665
14100SOL    HW243742   4.036   2.792  10.305 -0.3749  0.1844 -2.0956
14101SOL     OW43743   5.128   2.386   8.671  0.4417  0.9724  0.2221
14101SOL    HW143744   5.199   2.341   8.625  0.1633 -0.8042  1.4383
14101SOL    HW243745   5.083   2.436   8.602  1.8006  0.7521 -0.8715
14102SOL     OW43746   4.071   3.165   8.052  0.0641  0.0296 -0.4480
14102SOL    HW143747   4.103   3.169   8.142  0.0345 -3.0426 -0.1856
14102SOL    HW243748   4.001   3.229   8.049 -0.2644 -0.1145  1.9053
14103SOL     OW43749   5.505   2.742  10.055 -0.1154 -0.4618 -0.0234
14103SOL    HW143750   5.503   2.838  10.064 -0.8875 -0.4458 -0.2815
14103SOL    HW243751   5.598   2.720  10.055  0.0725  0.2940  0.0144
14104SOL     OW43752   4.171   4.017   8.085  0.2466  0.2233  0.2715
14104SOL    HW143753   4.208   3.968   8.011 -1.8064  0.9043 -1.3207
14104SOL    HW243754   4.175   4.108   8.057  1.4063  0.7337  1.9793
14105SOL     OW43755   4.077   2.939   7.421  0.7657 -0.0343 -0.1051
14105SOL    HW143756   4.123   3.021   7.407  1.2206 -0.3854 -0.7457
14105SOL    HW243757   3.984   2.961   7.409  0.7174  0.7175  1.4034
14106SOL     OW43758   5.937   3.418   8.220 -0.0552 -0.3828  0.3406
14106SOL    HW143759   5.852   3.377   8.206 -0.6576  1.0066 -0.3197
14106SOL    HW243760   5.984   3.358   8.278 -0.4391 -2.5403 -1.4465
14107SOL     OW43761   3.733   2.576   7.387 -0.1002  0.4110  0.2682
14107SOL    HW143762   3.806   2.569   7.448 -1.1918  0.9120  1.7224
14107SOL    HW243763   3.692   2.660   7.410  0.6528  1.6762 -2.6087
14108SOL     OW43764   4.965   3.743   8.386  0.5140  0.2063 -0.2055
14108SOL    HW143765   4.942   3.746   8.294  1.1887  1.0728 -0.3590
14108SOL    HW243766   4.883   3.726   8.432  0.1950 -0.3306 -0.9641
14109SOL     OW43767   4.368   3.472   7.484  0.3076  0.3556  0.2854
14109SOL    HW143768   4.279   3.497   7.460  0.3614  1.3944  1.0776
14109SOL    HW243769   4.371   3.378   7.471 -0.8469  0.3358  0.0581
14110SOL     OW43770   6.452   2.158   5.497 -0.3982 -0.2389 -0.2347
14110SOL    HW143771   6.398   2.230   5.464 -0.9208  0.2254  1.5044
14110SOL    HW243772   6.401   2.079   5.478 -1.3346  0.1284  0.6132
14111SOL     OW43773   5.201   3.320   8.722  0.5484 -0.3819  0.3784
14111SOL    HW143774   5.158   3.262   8.660  0.6635  0.6611 -0.7042
14111SOL    HW243775   5.137   3.389   8.739  1.3815  0.6439 -0.4859
14112SOL     OW43776   4.505   2.900  10.152  0.0665 -0.2189 -0.2366
14112SOL    HW143777   4.583   2.886  10.099  0.3760  0.2809  0.0752
14112SOL    HW243778   4.538   2.936  10.235 -0.6699  3.2047 -1.2639
14113SOL     OW43779   4.888   2.972   8.051 -0.0193 -0.1269 -0.4562
14113SOL    HW143780   4.870   3.063   8.074 -0.1262 -0.1155 -0.5897
14113SOL    HW243781   4.823   2.950   7.985 -1.3954 -0.9633  1.0939
14114SOL     OW43782   4.405   3.212   7.973  0.1930 -0.1458  0.2157
14114SOL    HW143783   4.500   3.213   7.963  0.3814 -0.4465  1.7071
14114SOL    HW243784   4.372   3.265   7.901  1.4379 -0.6702 -0.7717
14115SOL     OW43785   6.050   2.267   7.118 -0.0691  0.3296  0.2865
14115SOL    HW143786   5.992   2.192   7.102  0.0455 -0.2030  2.0941
14115SOL    HW243787   6.138   2.230   7.117  0.0575  0.6368  0.1269
14116SOL     OW43788   4.775   1.571   8.188  0.3787  0.0509  0.5843
14116SOL    HW143789   4.810   1.652   8.150 -0.3390 -0.1630 -0.5984
14116SOL    HW243790   4.841   1.505   8.169 -0.7833 -0.4780 -2.1656
14117SOL     OW43791   4.779   3.303   9.877  0.4639  0.2441 -0.3923
14117SOL    HW143792   4.693   3.313   9.836 -0.2899  1.2109  1.3145
14117SOL    HW243793   4.829   3.379   9.849 -0.0039  0.8285  0.2997
14118SOL     OW43794   4.297   1.019   9.722 -0.6236 -0.0190  0.0045
14118SOL    HW143795   4.306   0.964   9.800  1.6922  0.7792  0.3822
14118SOL    HW243796   4.269   0.958   9.654  1.3189 -1.6269  0.5359
14119SOL     OW43797   5.630   4.007   9.670 -0.1544  0.0846  0.3298
14119SOL    HW143798   5.669   3.927   9.705  0.0976 -0.4821 -1.1944
14119SOL    HW243799   5.703   4.053   9.628 -0.6563  0.1976 -0.4311
14120SOL     OW43800   4.602   2.923   8.340  0.3269 -0.4116 -0.0131
14120SOL    HW143801   4.531   2.972   8.299  0.8962 -0.7171 -1.4455
14120SOL    HW243802   4.647   2.988   8.395  0.6183  0.5308 -1.2971
14121SOL     OW43803   5.162   1.390   9.093 -0.0503 -0.0417 -0.3211
14121SOL    HW143804   5.165   1.483   9.069 -0.9546  0.1019  0.0801
14121SOL    HW243805   5.232   1.380   9.157 -2.1693  1.2422  2.4596
14122SOL     OW43806   4.332   3.748   8.529 -0.5396  1.0037 -0.4077
14122SOL    HW143807   4.312   3.655   8.515 -0.5990  0.9664 -0.0870
14122SOL    HW243808   4.311   3.763   8.621  1.2205  0.8706  0.0512
14123SOL     OW43809   3.930   2.514   6.193  0.4520  0.3879  0.1567
14123SOL    HW143810   3.894   2.470   6.115  1.2954 -1.5040  0.7820
14123SOL    HW243811   3.873   2.590   6.205  0.0605  0.5232 -2.0696
14124SOL     OW43812   4.168   2.080   9.625 -0.2354 -0.2798 -0.0963
14124SOL    HW143813   4.181   2.166   9.587 -1.4034  0.7320  1.6302
14124SOL    HW243814   4.182   2.093   9.719  2.1578 -2.5581 -0.0335
14125SOL     OW43815   5.653   2.442   9.425  0.5116  0.3561  0.4824
14125SOL    HW143816   5.674   2.431   9.332 -0.8441  0.9402  0.0900
14125SOL    HW243817   5.593   2.516   9.428  0.9509  0.6867  1.8985
14126SOL     OW43818   4.818   1.982  10.115 -0.0013  0.3377 -0.3779
14126SOL    HW143819   4.909   1.971  10.143  0.1651 -2.6436 -1.6454
14126SOL    HW243820   4.770   1.917  10.167 -1.1515  0.8815 -0.7413
14127SOL     OW43821   3.528   2.018   7.739 -0.0087 -0.2454 -0.1146
14127SOL    HW143822   3.474   1.951   7.697  0.6264 -0.1566 -1.0984
14127SOL    HW243823   3.499   2.018   7.830 -1.0481 -0.8149 -0.4263
14128SOL     OW43824   4.888   3.018   8.492  0.5407 -0.5861 -0.4635
14128SOL    HW143825   4.802   3.036   8.530  1.3396 -1.5758  1.9968
14128SOL    HW243826   4.935   3.101   8.497  0.6701 -0.7229  0.9314
14129SOL     OW43827   3.950   1.086  10.253  0.0981  0.2600  0.6861
14129SOL    HW143828   3.862   1.051  10.236  0.7755 -1.4578  0.4838
14129SOL    HW243829   3.948   1.112  10.345 -0.9280  1.2459  0.4092
14130SOL     OW43830   5.260   2.196   7.135 -0.5623  0.1198 -0.1452
14130SOL    HW143831   5.244   2.102   7.143 -0.0140  0.0731  0.5135
14130SOL    HW243832   5.345   2.209   7.177  0.3954  0.5985 -2.0985
14131SOL     OW43833   4.250   0.369   8.675 -0.2095  0.3563 -0.1985
14131SOL    HW143834   4.155   0.382   8.673 -0.2802  0.0614  0.6641
14131SOL    HW243835   4.262   0.282   8.713  0.3863 -0.0514 -1.2853
14132SOL     OW43836   5.060   3.994   8.421 -0.3822  0.1557  0.1773
14132SOL    HW143837   5.005   4.023   8.348 -1.5084  0.0878  0.9676
14132SOL    HW243838   5.074   3.901   8.405  1.5910  0.6420 -1.3168
14133SOL     OW43839   4.509   2.427   8.525  0.3479 -0.3701 -0.0129
14133SOL    HW143840   4.452   2.384   8.462 -2.2922  1.5563  0.8717
14133SOL    HW243841   4.545   2.503   8.478  2.7021 -1.7824 -0.6926
14134SOL     OW43842   4.664   4.419   8.376 -0.1404 -0.1910 -0.3736
14134SOL    HW143843   4.734   4.397   8.314  2.2034 -1.0321  2.3511
14134SOL    HW243844   4.617   4.337   8.390  1.0468 -0.6794  0.9100
14135SOL     OW43845   4.512   4.199   8.427  0.2615  0.3740 -0.2993
14135SOL    HW143846   4.417   4.197   8.431  0.2060  1.0122 -0.9879
14135SOL    HW243847   4.539   4.108   8.443 -0.4568  0.1982 -0.0631
14136SOL     OW43848   4.734   0.807   9.661  0.3555 -0.0389 -0.0718
14136SOL    HW143849   4.718   0.867   9.734  1.6681 -0.5903  0.7084
14136SOL    HW243850   4.702   0.854   9.584  0.1151  1.0938  0.6927
14137SOL     OW43851   3.925   1.555   5.903 -0.2420 -0.2983 -0.2613
14137SOL    HW143852   3.961   1.509   5.978 -0.3150 -0.7554 -0.5060
14137SOL    HW243853   3.830   1.552   5.915 -0.2437 -0.1185 -0.2239
14138SOL     OW43854   6.001   1.454   9.058 -0.2388 -0.1057  0.0983
14138SOL    HW143855   5.929   1.506   9.024 -1.8049 -1.2407  1.5211
14138SOL    HW243856   6.034   1.406   8.981 -1.3292  0.0484 -0.4797
14139SOL     OW43857   4.502   2.960   9.241  0.1061  0.0064 -0.3591
14139SOL    HW143858   4.429   2.902   9.219 -0.0280  0.4694 -1.1858
14139SOL    HW243859   4.515   3.013   9.163  1.8859 -0.6335 -0.5365
14140SOL     OW43860   2.351   2.788   9.773 -0.2538  0.1813  0.2340
14140SOL    HW143861   2.402   2.776   9.693  1.0680 -0.5902  1.1433
14140SOL    HW243862   2.330   2.881   9.776 -1.9287 -0.0419 -1.9078
14141SOL     OW43863   5.197   2.637   8.044  0.1573  0.1241  0.2871
14141SOL    HW143864   5.250   2.704   8.087  0.2124  0.7823 -0.7627
14141SOL    HW243865   5.248   2.612   7.967  0.3910 -1.5503  0.9511
14142SOL     OW43866   4.679   3.368   7.909  0.3018  0.0739  0.0079
14142SOL    HW143867   4.717   3.380   7.822 -1.0964 -0.5894 -0.7254
14142SOL    HW243868   4.667   3.457   7.943 -0.8650  0.4217 -1.2599
14143SOL     OW43869   5.441   1.857   8.197  0.3875 -0.1038 -0.7351
14143SOL    HW143870   5.436   1.899   8.282 -0.9316 -0.8695 -0.4111
14143SOL    HW243871   5.379   1.905   8.142  0.9074  0.1111 -1.1471
14144SOL     OW43872   6.166   1.740   9.487  0.0466 -0.1205 -0.0543
14144SOL    HW143873   6.079   1.749   9.449 -1.7516 -3.4103  2.7151
14144SOL    HW243874   6.172   1.811   9.551 -0.6867  0.0022 -0.1111
14145SOL     OW43875   4.100   2.656   7.143  0.0116  0.1213 -0.0160
14145SOL    HW143876   4.168   2.699   7.091 -0.4717  0.0504 -0.7142
14145SOL    HW243877   4.019   2.669   7.093 -0.1111 -1.8911 -0.4398
14146SOL     OW43878   5.447   1.933   7.716  0.5528  0.5238 -0.4281
14146SOL    HW143879   5.497   1.902   7.641  2.0691  1.7136  0.0558
14146SOL    HW243880   5.504   1.916   7.791 -0.8106 -0.3686  0.4530
14147SOL     OW43881   4.318   2.759   7.465  0.1748  0.4788 -0.7109
14147SOL    HW143882   4.363   2.842   7.451 -0.1175  0.5558 -1.1955
14147SOL    HW243883   4.227   2.783   7.479  0.4292  0.4201  1.4484
14148SOL     OW43884   5.093   0.880   9.430 -0.3976 -0.2396  0.4167
14148SOL    HW143885   5.029   0.885   9.359  0.4033 -2.4204 -0.5399
14148SOL    HW243886   5.091   0.789   9.458  1.3009 -0.0491  1.2904
14149SOL     OW43887   4.120   1.814   9.552  0.4526  0.3449 -0.0317
14149SOL    HW143888   4.146   1.906   9.544 -0.1490  0.5618  0.4240
14149SOL    HW243889   4.124   1.797   9.646 -0.4468  0.2126 -0.0077
14150SOL     OW43890   4.325   3.476   8.500 -0.1952  0.7269  0.2478
14150SOL    HW143891   4.270   3.474   8.422 -0.4372  1.3599  0.3926
14150SOL    HW243892   4.377   3.396   8.496  0.1821  1.0199 -0.8315
14151SOL     OW43893   5.592   2.499   8.889  0.6481  0.3843 -0.6731
14151SOL    HW143894   5.578   2.438   8.818  4.1099  1.5859 -2.6357
14151SOL    HW243895   5.544   2.578   8.864 -0.5707 -0.1482 -0.1038
14152SOL     OW43896   5.165   1.073   8.105 -0.2452 -0.0679  0.2887
14152SOL    HW143897   5.105   1.141   8.074  1.7277  0.9358 -1.5670
14152SOL    HW243898   5.185   1.099   8.195 -1.9625 -0.0110  0.6872
14153SOL     OW43899   4.023   2.178   8.757 -0.4032 -0.1554  0.0997
14153SOL    HW143900   3.928   2.162   8.763 -0.4110  0.1974  1.1326
14153SOL    HW243901   4.060   2.091   8.742 -0.8648 -0.3426 -0.0017
14154SOL     OW43902   3.710   1.933   5.666  0.1594  0.2062 -0.0194
14154SOL    HW143903   3.681   1.949   5.576 -1.5455 -1.8565  0.0724
14154SOL    HW243904   3.763   1.854   5.660  1.1862  0.8250  0.6350
14155SOL     OW43905   5.054   2.797   9.065  0.0099  0.0617 -0.6690
14155SOL    HW143906   5.060   2.793   8.970 -0.2598  0.7652 -0.7233
14155SOL    HW243907   4.970   2.756   9.086  0.8519 -1.6906 -0.5886
14156SOL     OW43908   5.712   0.871   8.179 -0.0448  0.3894  0.1620
14156SOL    HW143909   5.697   0.806   8.111  3.3106 -0.0667 -0.2744
14156SOL    HW243910   5.681   0.954   8.141  0.9503 -0.0055 -1.5749
14157SOL     OW43911   5.060   3.250   8.230  0.2607  0.1832 -0.3886
14157SOL    HW143912   4.969   3.222   8.223  0.0114  0.6755  0.5586
14157SOL    HW243913   5.060   3.339   8.195  0.0663  0.7071  0.8750
14158SOL     OW43914   5.688   4.800   8.200  0.5150 -0.2270  0.4602
14158SOL    HW143915   5.731   4.794   8.285  1.5796 -0.7090 -0.0832
14158SOL    HW243916   5.610   4.745   8.208 -0.8721  1.8066  1.9249
14159SOL     OW43917   3.520   2.806   5.929 -0.1259 -0.2701  0.2835
14159SOL    HW143918   3.486   2.733   5.877  1.0658  0.2339 -1.3035
14159SOL    HW243919   3.452   2.873   5.923 -0.4753 -0.6222  0.2755
14160SOL     OW43920   3.658   2.817  10.328 -0.2372  0.3130 -0.3776
14160SOL    HW143921   3.614   2.743  10.286  0.3490 -0.3111  0.1088
14160SOL    HW243922   3.596   2.847  10.394  0.3268 -1.0196  0.8019
14161SOL     OW43923   5.503   0.793  10.578  0.1871 -0.3602  0.2798
14161SOL    HW143924   5.493   0.856  10.649  0.6498  0.0844 -0.0452
14161SOL    HW243925   5.543   0.716  10.619  1.2504  0.2118  0.3455
14162SOL     OW43926   3.535   2.586   5.731  0.0426 -0.5273  0.1793
14162SOL    HW143927   3.620   2.550   5.707 -0.0488 -0.3378 -0.4370
14162SOL    HW243928   3.477   2.510   5.737 -0.2464 -0.4730 -1.5182
14163SOL     OW43929   3.774   2.100   8.681 -0.2090  0.7046  0.0907
14163SOL    HW143930   3.690   2.122   8.641 -0.4812 -0.0699  0.2273
14163SOL    HW243931   3.752   2.037   8.749  0.6658 -0.7207 -0.9116
14164SOL     OW43932   5.222   2.408   8.217  0.0363 -0.4935 -0.3796
14164SOL    HW143933   5.207   2.486   8.163 -0.2820  0.2394  0.7195
14164SOL    HW243934   5.142   2.400   8.269  0.0853 -1.5459 -0.4554
14165SOL     OW43935   5.051   2.905   7.282 -0.1568  0.5952 -0.0543
14165SOL    HW143936   5.006   2.871   7.359 -0.1522  2.5299  0.8846
14165SOL    HW243937   4.984   2.908   7.214 -0.3245 -0.5484  0.0503
14166SOL     OW43938   5.699   2.286   7.515 -0.2258 -0.1104  0.3713
14166SOL    HW143939   5.762   2.357   7.526  0.7028 -0.6345 -1.3417
14166SOL    HW243940   5.680   2.257   7.604  1.7526  0.2380  0.9454
14167SOL     OW43941   4.610   3.787   7.847  0.2242 -0.1173 -0.5404
14167SOL    HW143942   4.594   3.717   7.783 -0.5812 -1.7024  1.2896
14167SOL    HW243943   4.542   3.851   7.830 -0.3064 -0.7754 -0.9458
14168SOL     OW43944   4.339   2.119   8.862 -0.4007 -0.1335 -0.3591
14168SOL    HW143945   4.426   2.160   8.857  0.3351 -1.4187  0.9972
14168SOL    HW243946   4.312   2.108   8.771  0.7388  0.5570 -0.7965
14169SOL     OW43947   5.342   2.123   5.960 -0.1925 -0.1491 -0.1490
14169SOL    HW143948   5.432   2.112   5.990  0.6077  3.3157 -0.8423
14169SOL    HW243949   5.295   2.160   6.034 -0.2569  0.8735 -0.6853
14170SOL     OW43950   5.655   3.773  10.756 -0.0368 -0.1921  0.4485
14170SOL    HW143951   5.642   3.696  10.812 -2.6506  0.8976  1.4728
14170SOL    HW243952   5.634   3.847  10.812  1.4322  1.2652 -0.8237
14171SOL     OW43953   5.678   2.526   9.157 -0.5194 -0.5424 -0.4176
14171SOL    HW143954   5.637   2.512   9.071 -1.0134 -0.4375 -0.2067
14171SOL    HW243955   5.648   2.613   9.183  0.0012 -0.3877 -0.3405
14172SOL     OW43956   4.810   3.095   9.642  0.1184 -0.0967 -0.8016
14172SOL    HW143957   4.867   3.051   9.704 -0.1933 -0.3047 -0.6617
14172SOL    HW243958   4.833   3.188   9.650  0.5206 -0.1896 -0.8364
14173SOL     OW43959   4.613   3.935   8.493 -0.9421 -0.4213  0.3377
14173SOL    HW143960   4.570   3.934   8.579 -1.0324  1.5220  0.3505
14173SOL    HW243961   4.706   3.950   8.514 -0.9727  0.1064  0.1058
14174SOL     OW43962   4.763   2.268   8.967 -0.2664  0.3644 -0.5065
14174SOL    HW143963   4.720   2.350   8.941 -0.0040  0.3739 -0.9124
14174SOL    HW243964   4.817   2.292   9.042 -0.8000  0.3962 -0.1197
14175SOL     OW43965   4.953   2.072  11.277  0.2682  0.4259 -0.3780
14175SOL    HW143966   4.873   2.116  11.251  0.4488 -0.1558 -2.0020
14175SOL    HW243967   4.950   1.987  11.233  1.5982  0.2366 -0.1588
14176SOL     OW43968   4.012   2.509   8.173 -0.2348 -0.3847 -0.1144
14176SOL    HW143969   3.989   2.418   8.154 -0.5716 -0.0915 -1.2258
14176SOL    HW243970   4.099   2.520   8.135 -1.2721  0.4538 -2.4973
14177SOL     OW43971   3.970   2.524   8.444  0.1195 -0.4154  0.0513
14177SOL    HW143972   4.012   2.445   8.478  0.5436 -1.1340 -1.9748
14177SOL    HW243973   3.990   2.523   8.350  0.0787  2.0819 -0.0494
14178SOL     OW43974   4.119   2.131   9.901  0.1366 -0.0244 -0.0999
14178SOL    HW143975   4.094   2.220   9.924 -0.0476 -0.1015  0.0005
14178SOL    HW243976   4.051   2.076   9.940  0.5826 -0.2552  0.3758
14179SOL     OW43977   3.887   3.361   8.109  0.3119 -0.1871  0.1932
14179SOL    HW143978   3.799   3.324   8.116  0.3327 -1.2235 -3.2916
14179SOL    HW243979   3.873   3.449   8.073  0.6666 -1.0099 -2.1295
14180SOL     OW43980   4.953   2.792   8.766 -0.0513 -0.0922 -0.2982
14180SOL    HW143981   4.868   2.835   8.776 -0.2643 -0.7422  0.8397
14180SOL    HW243982   4.932   2.699   8.754  0.5079 -0.4363  1.1448
14181SOL     OW43983   5.178   3.672   8.578 -0.0597  0.4508  0.3149
14181SOL    HW143984   5.109   3.695   8.515 -1.2414 -1.0093  1.0115
14181SOL    HW243985   5.138   3.606   8.635  1.7156  0.0379  1.1683
14182SOL     OW43986   5.651   3.539   7.982  0.2312  0.2590 -0.0037
14182SOL    HW143987   5.589   3.611   7.995 -0.0652 -0.1361  0.7881
14182SOL    HW243988   5.603   3.460   8.005  0.8304 -0.1157  0.0030
14183SOL     OW43989   5.089   0.586   9.028  0.5915 -0.4007 -0.5384
14183SOL    HW143990   5.150   0.543   8.968  2.0067  1.8327 -0.8165
14183SOL    HW243991   5.139   0.599   9.109 -0.4824 -1.1147  0.2749
14184SOL     OW43992   3.203   3.195   9.018 -0.3770 -0.8929 -0.0916
14184SOL    HW143993   3.296   3.177   9.029 -0.5740 -0.5887  2.7157
14184SOL    HW243994   3.193   3.286   9.046 -1.3247 -0.3980 -1.8836
14185SOL     OW43995   6.344   2.192   8.761 -0.0934 -0.6637 -0.4554
14185SOL    HW143996   6.345   2.148   8.846 -0.7158  0.9053  0.4071
14185SOL    HW243997   6.431   2.176   8.724  0.0675 -1.6442  0.3184
14186SOL     OW43998   4.761   2.244  10.255 -0.1899 -0.0103 -0.1617
14186SOL    HW143999   4.796   2.193  10.182  1.3500 -0.0756  0.5731
14186SOL    HW244000   4.706   2.183  10.304  1.7400 -1.0887  0.7912
14187SOL     OW44001   4.901   3.196   9.309 -0.4827  0.0573 -0.4235
14187SOL    HW144002   4.839   3.166   9.242 -0.1685  1.0464 -1.1843
14187SOL    HW244003   4.931   3.281   9.277  2.1951 -0.9111 -0.6932
14188SOL     OW44004   5.388   4.183   8.766  0.2077 -0.4074 -0.7044
14188SOL    HW144005   5.381   4.200   8.672 -0.3647 -2.0188 -0.9811
14188SOL    HW244006   5.359   4.264   8.808  1.9683  0.9229 -1.8792
14189SOL     OW44007   5.602   0.530   7.908 -0.1672 -0.8698 -0.0750
14189SOL    HW144008   5.563   0.603   7.860  0.0093  0.1433  1.2621
14189SOL    HW244009   5.648   0.479   7.841  0.9457  1.0592 -0.8765
14190SOL     OW44010   3.565   2.920   8.016  0.8138 -0.0147  0.4850
14190SOL    HW144011   3.657   2.919   8.042  0.2859 -2.0876  2.6164
14190SOL    HW244012   3.533   3.006   8.044  1.7744  0.1943  0.9853
14191SOL     OW44013   3.968   1.098  10.534  0.9198 -0.0898  0.1580
14191SOL    HW144014   3.912   1.118  10.609  0.8724 -0.3988  0.2093
14191SOL    HW244015   4.057   1.105  10.568  0.9011 -0.0958  0.2080
14192SOL     OW44016   5.162   2.068   9.140  0.1708 -0.2143  0.2973
14192SOL    HW144017   5.088   2.029   9.093  0.6737  0.9702 -1.5882
14192SOL    HW244018   5.199   1.996   9.191 -0.6804 -1.4758 -0.7917
14193SOL     OW44019   3.038   1.440   8.391 -0.5828  0.1322 -0.1898
14193SOL    HW144020   2.993   1.383   8.453  0.4945  1.1029  1.5655
14193SOL    HW244021   3.111   1.388   8.359 -0.0948  0.1982  0.7653
14194SOL     OW44022   3.774   3.558  10.807 -0.4996  0.0930  0.5180
14194SOL    HW144023   3.867   3.542  10.786 -0.3525  1.7354 -0.2426
14194SOL    HW244024   3.746   3.478  10.851  1.0400 -0.8066 -0.0302
14195SOL     OW44025   4.358   2.214   9.183 -0.3409 -0.4017  0.4273
14195SOL    HW144026   4.308   2.168   9.116  1.0828  2.0044 -2.5289
14195SOL    HW244027   4.440   2.166   9.188  0.1000  0.1998 -0.6699
14196SOL     OW44028   5.487   3.335   8.088  0.7080  0.5620  0.2077
14196SOL    HW144029   5.426   3.401   8.122 -0.6585 -0.6447  0.1785
14196SOL    HW244030   5.431   3.273   8.041  1.8301 -1.1303  1.0160
14197SOL     OW44031   4.592   2.021   8.703 -0.4557  0.1045  0.2371
14197SOL    HW144032   4.676   2.047   8.666 -1.2578  2.0815 -0.2972
14197SOL    HW244033   4.613   1.989   8.791  0.9628 -0.5499 -0.3197
14198SOL     OW44034   3.187   1.758   9.137  0.1496  0.4225  0.5016
14198SOL    HW144035   3.141   1.711   9.206 -1.0651  1.0630  0.1609
14198SOL    HW244036   3.202   1.693   9.068  0.1138  0.1169  0.7832
14199SOL     OW44037   7.174   2.242   6.797  0.5666  0.2780  0.1994
14199SOL    HW144038   7.098   2.284   6.837  1.4101  0.3423  1.8470
14199SOL    HW244039   7.152   2.235   6.704 -1.8699 -0.6670  0.7744
14200SOL     OW44040   4.124   3.089   6.638 -0.4544  0.5592 -0.0903
14200SOL    HW144041   4.098   3.176   6.609  1.1317  0.8611 -0.7146
14200SOL    HW244042   4.141   3.099   6.731 -1.0221  0.7145  0.0045
14201SOL     OW44043   4.882   3.455   8.570 -0.2127  0.2613 -0.2949
14201SOL    HW144044   4.791   3.425   8.579 -0.4872  0.9555 -0.6941
14201SOL    HW244045   4.904   3.489   8.657  0.0580 -0.9554  0.1252
14202SOL     OW44046   3.324   3.043   8.313 -0.4487  0.5371 -0.7917
14202SOL    HW144047   3.329   2.974   8.246 -0.9157  0.8859 -1.1966
14202SOL    HW244048   3.399   3.100   8.295 -1.1261  1.1870 -1.6618
14203SOL     OW44049   4.928   1.543   9.392  0.0365 -0.0020  0.0847
14203SOL    HW144050   4.962   1.576   9.309  0.3852 -0.3397  0.0928
14203SOL    HW244051   4.870   1.471   9.367  0.7829 -0.6480  0.1745
14204SOL     OW44052   7.409   3.005   8.025 -0.1076 -0.3342  0.3778
14204SOL    HW144053   7.390   3.044   7.940  2.5925  0.5422  0.0845
14204SOL    HW244054   7.476   2.940   8.008  0.0757 -0.5420  1.7624
14205SOL     OW44055   6.293   7.758   8.419 -0.3416 -0.0644  0.1279
14205SOL    HW144056   6.323   7.703   8.346 -0.7959 -0.4676  0.2356
14205SOL    HW244057   6.270   7.841   8.378  0.6328  0.1629  0.0031
14206SOL     OW44058   4.365   3.051   8.230 -0.1378  0.2452 -0.1030
14206SOL    HW144059   4.392   3.115   8.163 -0.4247  0.1930 -0.2719
14206SOL    HW244060   4.298   3.097   8.281  1.2383  0.8734  1.1990
14207SOL     OW44061   4.137   3.626   7.958 -0.8835 -0.2068  0.0315
14207SOL    HW144062   4.207   3.667   8.008  0.9099 -1.9784 -0.8782
14207SOL    HW244063   4.071   3.602   8.024  0.4146 -0.5447  1.2481
14208SOL     OW44064   4.154   3.422   8.284 -0.0846  0.3712  0.0818
14208SOL    HW144065   4.163   3.327   8.292 -2.7861  0.0823  0.4757
14208SOL    HW244066   4.066   3.435   8.249  0.0507  2.7558  0.4722
14209SOL     OW44067   5.177   2.962   8.744 -0.1927 -0.0584 -0.2148
14209SOL    HW144068   5.155   2.982   8.653  0.7007 -0.9974 -0.6579
14209SOL    HW244069   5.111   2.898   8.771 -1.9564  2.0017  0.6259
14210SOL     OW44070   4.845   1.417   9.046  0.3965  0.1910 -0.0434
14210SOL    HW144071   4.824   1.326   9.068 -1.2748  0.1369 -1.6187
14210SOL    HW244072   4.937   1.415   9.022  1.0686 -0.5784  2.2890
14211SOL     OW44073   4.874   2.368   9.554  0.6398  0.6831  0.1338
14211SOL    HW144074   4.960   2.407   9.538  0.8099  0.3764  0.2914
14211SOL    HW244075   4.813   2.442   9.553  0.7774  0.7875 -0.9126
14212SOL     OW44076   4.453   3.513   8.237 -0.3131  0.0375  0.1896
14212SOL    HW144077   4.372   3.496   8.188  1.6506 -0.9802 -2.9659
14212SOL    HW244078   4.442   3.602   8.271 -1.6261  1.1489 -2.7502
14213SOL     OW44079   4.667   2.897   7.525  0.3534  0.4671 -0.3358
14213SOL    HW144080   4.583   2.937   7.500  0.3519 -0.3235 -1.6920
14213SOL    HW244081   4.713   2.966   7.573 -0.6028  1.2936 -0.5696
14214SOL     OW44082   7.912   2.488   7.207  0.2283 -0.3483  0.4012
14214SOL    HW144083   7.944   2.501   7.118 -1.1664  2.3798  0.1999
14214SOL    HW244084   7.855   2.411   7.202 -0.4760  0.2498 -1.2601
14215SOL     OW44085   4.090   1.991  11.139  0.0585 -0.2647 -0.1068
14215SOL    HW144086   4.059   2.082  11.136 -0.6700 -0.4836  0.5462
14215SOL    HW244087   4.145   1.982  11.061 -0.9149  0.3659 -0.8967
14216SOL     OW44088   4.228   2.470  10.134  0.5476  0.4617 -0.1008
14216SOL    HW144089   4.202   2.462  10.225  2.2759  1.6677  0.5631
14216SOL    HW244090   4.247   2.563  10.122 -1.2620  0.6418 -2.2074
14217SOL     OW44091   2.672   2.536   9.256 -0.6023 -0.2588 -0.0014
14217SOL    HW144092   2.748   2.538   9.197 -0.5823  1.6324  0.0273
14217SOL    HW244093   2.609   2.480   9.211  0.0314 -0.1984 -1.0232
14218SOL     OW44094   5.881   2.498   7.559  0.3815 -0.3265  0.1944
14218SOL    HW144095   5.936   2.442   7.504  1.2641 -0.4240  1.1442
14218SOL    HW244096   5.872   2.580   7.510  1.3807 -0.3121  0.0239
14219SOL     OW44097   5.738   1.486   6.175 -0.0838 -0.1835  0.1652
14219SOL    HW144098   5.765   1.577   6.162 -1.6549  0.0651 -1.9409
14219SOL    HW244099   5.781   1.437   6.105 -2.5095 -0.2557 -1.4052
14220SOL     OW44100   6.500   2.626   8.827 -0.1408  0.1733 -0.3017
14220SOL    HW144101   6.530   2.552   8.774 -1.3864 -0.6661  0.1066
14220SOL    HW244102   6.580   2.669   8.856  0.6546 -1.3817 -0.0466
14221SOL     OW44103   5.193   4.244   9.116  0.1513  0.3031 -0.3260
14221SOL    HW144104   5.156   4.275   9.033 -1.2629 -1.1145 -0.2620
14221SOL    HW244105   5.263   4.184   9.089  0.4716  0.7333 -0.4690
14222SOL     OW44106   6.536   4.126   8.544  0.2160 -0.6502  0.3085
14222SOL    HW144107   6.557   4.186   8.616  0.8321 -0.8560  0.3018
14222SOL    HW244108   6.448   4.095   8.564  0.1568 -0.2546  0.6674
14223SOL     OW44109   5.033   3.591   7.855  0.4840 -0.1772 -0.0150
14223SOL    HW144110   5.005   3.683   7.848 -0.2838 -0.3449  0.7308
14223SOL    HW244111   4.957   3.541   7.824  0.4701 -0.6022  0.6985
14224SOL     OW44112   4.015   2.518   6.710 -0.6413  0.4432 -0.5703
14224SOL    HW144113   3.982   2.605   6.737 -1.2261  0.5752 -1.6738
14224SOL    HW244114   3.953   2.457   6.749 -1.3420  0.6236 -1.3667
14225SOL     OW44115   4.680   2.946   7.855  0.6149  0.2190  0.4474
14225SOL    HW144116   4.717   3.016   7.801 -0.5445  1.7529  1.5579
14225SOL    HW244117   4.585   2.956   7.847  0.4219 -0.4219  1.6109
14226SOL     OW44118   6.370   1.951   9.440 -0.0130 -0.0933  0.4561
14226SOL    HW144119   6.285   1.995   9.441  0.4848  1.0121  3.1710
14226SOL    HW244120   6.366   1.888   9.512  1.5438  0.2104  0.8441
14227SOL     OW44121   4.243   1.451   9.938 -0.0325 -0.1106 -0.0553
14227SOL    HW144122   4.173   1.386   9.924 -0.1077  0.0771 -0.5715
14227SOL    HW244123   4.289   1.455   9.853  1.2465 -0.9797  0.5635
14228SOL     OW44124   5.097   0.186   6.213 -0.5216 -0.5057  0.0807
14228SOL    HW144125   5.007   0.207   6.239 -0.1693  0.4838  0.5545
14228SOL    HW244126   5.150   0.252   6.258  0.2468  0.3932 -2.0213
14229SOL     OW44127   5.050   2.809   9.632 -0.0381  0.3617  0.2395
14229SOL    HW144128   5.109   2.881   9.610  2.7907 -1.7088  0.4140
14229SOL    HW244129   4.980   2.814   9.568  1.6254  1.5786 -1.5918
14230SOL     OW44130   4.480   3.790   8.286  0.4006  0.5973 -0.3491
14230SOL    HW144131   4.451   3.807   8.375  1.4288  0.8172 -0.0435
14230SOL    HW244132   4.575   3.795   8.290  1.0479 -5.0643 -0.1806
14231SOL     OW44133   4.640   3.765   8.851 -0.3375  0.4665 -0.7745
14231SOL    HW144134   4.585   3.688   8.835 -1.4040  0.6069  1.8119
14231SOL    HW244135   4.729   3.734   8.834 -0.6821 -1.5608  0.7148
14232SOL     OW44136   4.662   2.575   9.694 -0.1918 -0.0055 -0.0725
14232SOL    HW144137   4.677   2.669   9.687  4.7482 -0.5835 -0.4035
14232SOL    HW244138   4.678   2.554   9.786 -0.6722 -0.6078 -0.1197
14233SOL     OW44139   4.488   1.879   8.491 -0.0582 -0.9296 -0.0128
14233SOL    HW144140   4.554   1.873   8.422 -0.2601  1.5265 -0.5349
14233SOL    HW244141   4.532   1.922   8.564 -0.4459 -1.4876  0.5629
14234SOL     OW44142   3.418   2.268   9.869  0.0088  0.7866 -0.5643
14234SOL    HW144143   3.506   2.260   9.907 -0.7708  0.1923  1.2387
14234SOL    HW244144   3.427   2.336   9.803  2.1426 -0.2487 -1.4405
14235SOL     OW44145   4.174   3.767   7.399  1.0075  0.0474  0.0605
14235SOL    HW144146   4.085   3.737   7.380  1.0435 -0.8303  1.1470
14235SOL    HW244147   4.226   3.733   7.325  1.0377 -2.7005  1.2042
14236SOL     OW44148   5.514   0.088  10.054  0.2316  0.2588  0.3975
14236SOL    HW144149   5.460   0.026  10.103  0.3482 -0.7299 -0.6797
14236SOL    HW244150   5.604   0.063  10.076  0.3035 -0.6045 -0.7491
14237SOL     OW44151   5.205   4.113   8.160  0.3329  0.1654 -0.5237
14237SOL    HW144152   5.118   4.147   8.179  1.0925  1.0039  1.7138
14237SOL    HW244153   5.196   4.072   8.074 -1.9966  1.1215 -0.8061
14238SOL     OW44154   4.595   3.179   9.443  0.6253  0.1606  0.4713
14238SOL    HW144155   4.684   3.163   9.475 -0.1849 -2.8192  1.5819
14238SOL    HW244156   4.588   3.125   9.364 -0.3427 -0.0223  0.6712
14239SOL     OW44157   4.035   1.027   9.842  0.1616  0.1841 -0.2822
14239SOL    HW144158   4.118   1.034   9.795  0.6764  0.1152  0.5927
14239SOL    HW244159   4.048   0.955   9.904 -1.3258 -1.3424 -1.6332
14240SOL     OW44160   4.159   2.678   7.829  0.3420 -0.7464 -0.4552
14240SOL    HW144161   4.069   2.693   7.859  0.5076 -0.0073 -0.2869
14240SOL    HW244162   4.205   2.758   7.856  1.0187 -1.0774 -0.6395
14241SOL     OW44163   3.247   2.954   8.045 -0.0611 -0.0382  0.2489
14241SOL    HW144164   3.174   2.959   7.984 -0.1459  1.7360  0.4531
14241SOL    HW244165   3.299   3.032   8.027  2.4672 -1.8191 -0.7041
14242SOL     OW44166   3.788   2.959   7.708  0.2118  0.1245 -0.4322
14242SOL    HW144167   3.743   3.023   7.763 -1.4752  0.3566 -1.9833
14242SOL    HW244168   3.828   3.010   7.638 -1.3159 -0.4660 -1.7986
14243SOL     OW44169   6.010   4.404   9.572 -0.4990 -0.1192 -0.2417
14243SOL    HW144170   6.026   4.452   9.491 -0.5143  1.2071  0.5176
14243SOL    HW244171   5.952   4.461   9.622  1.0155 -0.0325  1.5056
14244SOL     OW44172   4.086   1.044   8.904 -0.4670 -0.3623 -0.5605
14244SOL    HW144173   4.080   1.116   8.842 -0.7596  0.1596  0.0578
14244SOL    HW244174   4.174   1.010   8.893 -1.2230 -1.7994 -2.8924
14245SOL     OW44175   5.125   2.264   7.450 -0.3619  0.5506  0.9420
14245SOL    HW144176   5.187   2.336   7.465  0.1518  0.7915 -1.7875
14245SOL    HW244177   5.044   2.294   7.491  0.8283  0.9561  3.1666
14246SOL     OW44178   3.676   2.423   9.620 -0.0586 -0.4226 -0.4580
14246SOL    HW144179   3.707   2.505   9.581 -0.3896 -0.4843 -0.8565
14246SOL    HW244180   3.725   2.354   9.575 -0.3943 -0.4893 -0.7345
14247SOL     OW44181   4.654   1.716   9.487  0.5440 -0.1744  0.1640
14247SOL    HW144182   4.692   1.801   9.510  1.5535 -0.6375  0.2564
14247SOL    HW244183   4.727   1.665   9.454  0.0575 -1.1895  0.5989
14248SOL     OW44184   6.586   2.107   8.903  0.0684 -0.1203 -0.3474
14248SOL    HW144185   6.597   2.074   8.992  0.4300 -0.1121 -0.3864
14248SOL    HW244186   6.645   2.182   8.897  0.1316 -0.1884 -0.6277
14249SOL     OW44187   5.124   0.817   7.944 -0.5030  0.1869 -0.1666
14249SOL    HW144188   5.148   0.891   7.889  1.0279  0.3325  0.6529
14249SOL    HW244189   5.041   0.843   7.985 -1.1141  0.5043 -1.5725
14250SOL     OW44190   4.066   1.541   7.821 -0.1387  0.4777 -0.3155
14250SOL    HW144191   4.044   1.634   7.820 -1.1518  0.2447 -0.1085
14250SOL    HW244192   4.057   1.515   7.912  0.0076  0.1429 -0.3934
14251SOL     OW44193   6.421   1.576  10.183  0.2455 -0.8884  0.0629
14251SOL    HW144194   6.496   1.630  10.209 -0.7682  1.6001 -1.7567
14251SOL    HW244195   6.345   1.631  10.202 -1.1618 -3.1759  1.4536
14252SOL     OW44196   5.106   1.599  10.468 -0.2172  0.4765  0.2680
14252SOL    HW144197   5.053   1.677  10.452  0.9185  0.5931 -4.3400
14252SOL    HW244198   5.196   1.631  10.467  0.1816 -0.5197  1.6869
14253SOL     OW44199   4.224   4.170   8.419 -0.0361  0.1644  0.1311
14253SOL    HW144200   4.183   4.083   8.417  0.3080  0.0132 -0.8668
14253SOL    HW244201   4.167   4.222   8.476  0.1548 -0.8971  1.3378
14254SOL     OW44202   4.095   2.222   7.122  0.1644  0.6777  0.0248
14254SOL    HW144203   4.023   2.281   7.145 -2.1686 -1.3240 -1.6025
14254SOL    HW244204   4.108   2.235   7.028  0.5559 -0.3998 -0.0857
14255SOL     OW44205   3.852   3.446   7.773 -0.6045  0.2174 -0.5790
14255SOL    HW144206   3.759   3.445   7.799 -0.5323 -0.6552 -0.3098
14255SOL    HW244207   3.877   3.538   7.778 -1.3830  0.4294 -0.3767
14256SOL     OW44208   4.868   4.677   8.432  0.3493  0.5072 -0.6745
14256SOL    HW144209   4.782   4.716   8.441 -0.0323 -0.5242  0.5264
14256SOL    HW244210   4.880   4.664   8.338 -0.1468  2.0402 -0.9606
14257SOL     OW44211   5.271   1.754   8.764 -1.0754 -0.3817 -0.3790
14257SOL    HW144212   5.218   1.677   8.742 -1.8971 -0.4762  1.7036
14257SOL    HW244213   5.207   1.825   8.771 -0.6379 -0.0136 -0.0714
14258SOL     OW44214   6.250   2.694  10.461 -0.3923  0.0234  0.0873
14258SOL    HW144215   6.273   2.632  10.391 -0.2455 -0.5887  0.6676
14258SOL    HW244216   6.161   2.722  10.440 -0.2765  0.0072 -0.4567
14259SOL     OW44217   2.804   2.720   6.982 -0.1157  0.6260 -0.0785
14259SOL    HW144218   2.749   2.710   7.060 -1.4104  0.7993 -0.9204
14259SOL    HW244219   2.885   2.759   7.014  0.1209 -0.9848  1.4360
14260SOL     OW44220   6.983   4.956   8.745  0.8746 -0.1809 -1.2926
14260SOL    HW144221   7.062   5.009   8.743  1.3028 -0.8090 -1.4605
14260SOL    HW244222   6.965   4.945   8.839  1.1480 -0.2652 -1.2475
14261SOL     OW44223   3.881   2.696  10.244  0.0599 -0.1688 -1.0021
14261SOL    HW144224   3.803   2.740  10.277 -0.5850 -1.0862 -1.2406
14261SOL    HW244225   3.897   2.734  10.158 -0.3996 -0.2900 -1.1427
14262SOL     OW44226   4.467   4.442   8.779 -0.2036  0.4945 -0.2135
14262SOL    HW144227   4.409   4.366   8.779  1.6083 -1.0207 -1.8970
14262SOL    HW244228   4.467   4.472   8.688  2.2468 -0.1560 -0.5220
14263SOL     OW44229   4.783   7.704   8.305  0.0559  0.3392 -0.5238
14263SOL    HW144230   4.854   7.661   8.351 -0.3138 -0.4113 -0.6390
14263SOL    HW244231   4.720   7.727   8.373 -0.8213 -1.4038 -0.6840
14264SOL     OW44232   4.506   2.035   9.533  0.5065 -0.0655  0.1093
14264SOL    HW144233   4.492   2.066   9.623  1.7191 -0.1034  0.3279
14264SOL    HW244234   4.465   2.101   9.478 -0.3953 -0.1237  0.6879
14265SOL     OW44235   4.563   3.582   7.647 -0.0366  0.4450  0.2859
14265SOL    HW144236   4.622   3.508   7.660  0.2062  0.7837  1.1777
14265SOL    HW244237   4.512   3.559   7.569  0.0786 -0.6362  0.5145
14266SOL     OW44238   3.671   2.343   7.921  0.2952  0.2706 -0.0559
14266SOL    HW144239   3.633   2.403   7.857  1.8996 -0.2929 -1.6057
14266SOL    HW244240   3.765   2.346   7.904  0.4012 -3.6030 -1.0996
14267SOL     OW44241   3.596   1.704  10.131 -0.2506 -0.4786  0.4617
14267SOL    HW144242   3.511   1.741  10.108 -0.3957 -0.6934  0.6539
14267SOL    HW244243   3.654   1.780  10.137 -0.8941 -0.0865  2.4365
14268SOL     OW44244   6.303   2.070   9.017 -0.5217 -0.0603 -0.2852
14268SOL    HW144245   6.309   2.055   9.112 -0.0301 -1.3705 -0.5092
14268SOL    HW244246   6.265   1.989   8.983  0.5450 -0.1294 -1.3589
14269SOL     OW44247   3.850   2.558   7.754 -0.3763  0.7073 -0.4119
14269SOL    HW144248   3.898   2.609   7.689  0.7402 -0.4419 -0.5402
14269SOL    HW244249   3.869   2.602   7.837  1.0622  0.2156 -0.4457
14270SOL     OW44250   3.062   2.616   7.204 -0.1470  0.1070  0.0740
14270SOL    HW144251   3.145   2.663   7.216  0.4679 -0.8782 -0.1374
14270SOL    HW244252   3.053   2.608   7.109 -0.0317 -0.5277  0.1087
14271SOL     OW44253   3.982   2.546  10.803  0.0482 -0.0190  0.0037
14271SOL    HW144254   3.938   2.467  10.835 -0.1430  1.0776  2.7699
14271SOL    HW244255   3.923   2.581  10.736 -0.9886 -1.0030  0.3724
14272SOL     OW44256   3.946   1.515   9.718  0.1049  0.4469  0.2517
14272SOL    HW144257   3.954   1.441   9.778 -0.6042  1.3276  1.4575
14272SOL    HW244258   4.027   1.512   9.666  0.4740 -0.6641  0.8580
14273SOL     OW44259   3.526   4.515  11.049 -0.5869  0.1470 -0.3395
14273SOL    HW144260   3.554   4.449  11.112 -0.6737  1.3788  1.0490
14273SOL    HW244261   3.473   4.576  11.100  0.9705  2.2977 -1.1091
14274SOL     OW44262   4.481   4.300  12.079 -0.4773  0.4971  0.0993
14274SOL    HW144263   4.495   4.207  12.062 -1.3974 -0.0286  1.9413
14274SOL    HW244264   4.550   4.345  12.031  0.6105 -1.2149  0.0132
14275SOL     OW44265   5.688   2.926  10.318  0.4418  0.8686 -0.0811
14275SOL    HW144266   5.705   2.871  10.240 -1.3746  2.7340 -1.9225
14275SOL    HW244267   5.626   2.992  10.287 -0.2787  1.7656  2.9909
14276SOL     OW44268   6.621   2.234  10.008 -0.3718  0.4147  0.4752
14276SOL    HW144269   6.601   2.286  10.087 -2.3051  0.2133  0.1628
14276SOL    HW244270   6.606   2.144  10.035 -0.4156  0.2945  0.0429
14277SOL     OW44271   4.256   3.148  11.890  0.0068  0.1771 -0.2524
14277SOL    HW144272   4.179   3.172  11.839  0.2824 -0.2680 -0.8797
14277SOL    HW244273   4.319   3.218  11.871  0.1228 -0.0086 -0.5502
14278SOL     OW44274   4.072   3.994  11.213  0.0468  0.6713  0.0084
14278SOL    HW144275   4.122   4.004  11.132  1.1236 -1.0784  0.4150
14278SOL    HW244276   4.137   3.967  11.278 -1.5717 -3.8988  0.0902
14279SOL     OW44277   5.157   0.700  10.429  0.1504 -0.0737  0.1662
14279SOL    HW144278   5.246   0.676  10.402  0.5313  1.4463 -0.0420
14279SOL    HW244279   5.152   0.677  10.521  0.2656 -1.4814 -0.1618
14280SOL     OW44280   2.989   3.116  11.290  0.1920  0.1376 -0.5057
14280SOL    HW144281   3.025   3.125  11.378  0.2078  1.2504 -0.6111
14280SOL    HW244282   2.903   3.158  11.295  0.5219  0.9328 -1.2154
14281SOL     OW44283   3.912   3.163  11.243 -0.0355 -0.0365 -0.4943
14281SOL    HW144284   3.873   3.183  11.158 -1.7577 -2.6275 -0.4013
14281SOL    HW244285   3.963   3.242  11.264 -0.9108  1.3622 -3.1058
14282SOL     OW44286   4.886   2.731  11.094  0.7097  0.0913  0.6454
14282SOL    HW144287   4.879   2.755  11.001 -0.6389  0.2622  0.7687
14282SOL    HW244288   4.932   2.805  11.134  1.9217 -0.2933  0.0117
14283SOL     OW44289   2.417   1.467  10.302  0.2108  0.2590 -1.1035
14283SOL    HW144290   2.408   1.490  10.394  1.3248 -1.4576 -0.5370
14283SOL    HW244291   2.421   1.552  10.257  0.3334  1.1321  0.4738
14284SOL     OW44292   5.876   2.538  10.276  0.7792  0.0693  0.8387
14284SOL    HW144293   5.882   2.621  10.323  0.3233  0.5580  0.0556
14284SOL    HW244294   5.849   2.475  10.343 -1.6032  1.0912  0.9381
14285SOL     OW44295   2.840   2.553   0.087 -0.3294  0.1053 -0.2583
14285SOL    HW144296   2.832   2.503   0.005 -2.3212  1.5736 -1.0693
14285SOL    HW244297   2.761   2.607   0.088  0.8689  1.9289  1.4262
14286SOL     OW44298   3.011   1.282   0.250  0.4021 -0.3455  0.1425
14286SOL    HW144299   3.010   1.302   0.344 -0.9715 -0.0612  0.0930
14286SOL    HW244300   2.933   1.327   0.216  1.8220  1.0187 -1.4535
14287SOL     OW44301   4.751   4.006  10.192  0.4080  0.3188  0.2616
14287SOL    HW144302   4.702   3.924  10.198  0.3620  0.4697  3.5359
14287SOL    HW244303   4.684   4.074  10.201  0.7768  0.6456  0.5367
14288SOL     OW44304   4.764   1.498   9.842 -0.1138  0.5953  0.2650
14288SOL    HW144305   4.798   1.418   9.883 -0.7753  0.6053  0.8596
14288SOL    HW244306   4.835   1.529   9.786  0.2762 -0.2189  0.3039
14289SOL     OW44307   5.141   1.683  11.202  0.4296  0.5582 -0.3361
14289SOL    HW144308   5.084   1.742  11.153  0.6622  0.2825 -0.9442
14289SOL    HW244309   5.190   1.741  11.261  1.0687  1.0543 -1.3365
14290SOL     OW44310   4.100   2.309   8.545 -0.2192  0.4197  0.1800
14290SOL    HW144311   4.072   2.264   8.625 -2.9924  0.7518 -0.4992
14290SOL    HW244312   4.163   2.251   8.505 -0.7051 -0.9647  1.3364
14291SOL     OW44313   5.521   3.401  10.155 -0.0449 -0.0617 -0.2530
14291SOL    HW144314   5.599   3.453  10.132 -0.1340  0.0005 -0.4204
14291SOL    HW244315   5.456   3.465  10.183 -0.0937 -0.0987 -0.2813
14292SOL     OW44316   5.187   3.173  10.485 -0.4333  0.4420 -0.2232
14292SOL    HW144317   5.168   3.080  10.497 -2.7044  0.7410 -1.0338
14292SOL    HW244318   5.155   3.194  10.398  0.3934  1.9278 -0.2116
14293SOL     OW44319   4.056   2.766   9.617  0.2503 -0.4887  0.0770
14293SOL    HW144320   4.086   2.795   9.704  0.2418 -0.0433 -0.0668
14293SOL    HW244321   4.103   2.822   9.556  1.7141 -2.0565 -0.3005
14294SOL     OW44322   5.815   2.211   0.430 -0.4352 -0.3335  0.2971
14294SOL    HW144323   5.755   2.262   0.375  1.3440  0.5778 -0.8964
14294SOL    HW244324   5.817   2.258   0.513 -1.6476 -0.6095  0.5060
14295SOL     OW44325   4.240   3.138   9.356  0.0871  0.0563  0.2015
14295SOL    HW144326   4.240   3.177   9.443 -1.0632 -0.9417  0.6928
14295SOL    HW244327   4.278   3.204   9.299 -0.8672  1.4769  1.1560
14296SOL     OW44328   5.398   1.888  11.894 -0.2443  0.3149  0.0043
14296SOL    HW144329   5.419   1.974  11.857 -0.3840  0.5523  0.4716
14296SOL    HW244330   5.478   1.862  11.940 -0.6933  0.8786  1.1416
14297SOL     OW44331   4.618   2.519   8.927  0.2726  0.4072  0.1199
14297SOL    HW144332   4.546   2.493   8.870 -0.9482  1.1716  1.2539
14297SOL    HW244333   4.575   2.553   9.006  1.8774  0.9921  0.7842
14298SOL     OW44334   3.513   2.097  11.173 -0.8440 -0.2934 -0.2154
14298SOL    HW144335   3.421   2.068  11.168 -0.7528 -0.5035 -0.7063
14298SOL    HW244336   3.561   2.033  11.121 -0.1609 -1.1743  1.4150
14299SOL     OW44337   4.108   2.574   8.709 -0.1703 -0.0611 -0.2295
14299SOL    HW144338   4.107   2.508   8.639 -0.2834  0.0870 -0.3697
14299SOL    HW244339   4.019   2.570   8.746 -0.0536 -0.2702  0.0295
14300SOL     OW44340   5.209   4.466  10.648 -0.5074 -0.3452 -0.0181
14300SOL    HW144341   5.225   4.372  10.645  0.6173 -0.1584 -0.5023
14300SOL    HW244342   5.115   4.475  10.659 -0.7784 -1.5110 -1.2384
14301SOL     OW44343   4.527   1.569  11.636  0.1411 -0.2063 -0.4484
14301SOL    HW144344   4.439   1.533  11.628 -0.2672  0.8364 -0.8268
14301SOL    HW244345   4.524   1.621  11.717  0.5733 -0.6058 -0.1704
14302SOL     OW44346   5.499   2.935  11.036  0.3682  0.0187 -0.1104
14302SOL    HW144347   5.475   3.027  11.026 -1.3519 -0.3561  0.3764
14302SOL    HW244348   5.447   2.904  11.110  0.3576 -1.5483 -0.7419
14303SOL     OW44349   5.139   3.616  10.414  0.2141 -0.0292 -0.3520
14303SOL    HW144350   5.115   3.636  10.504 -1.1092 -0.2042 -0.6487
14303SOL    HW244351   5.057   3.588  10.372  0.8175 -0.0399 -1.5844
14304SOL     OW44352   3.305   1.550  10.962 -0.3676 -0.6661  0.1167
14304SOL    HW144353   3.285   1.472  10.911 -1.8431  0.0813 -0.5033
14304SOL    HW244354   3.220   1.578  10.998 -0.0964  1.3315 -0.6899
14305SOL     OW44355   5.653   1.323  10.755  0.0116  0.3182  0.1706
14305SOL    HW144356   5.745   1.345  10.771 -0.1954  0.7847  0.7837
14305SOL    HW244357   5.616   1.404  10.720  0.5814 -0.8017 -3.5107
14306SOL     OW44358   5.008   5.092  10.602 -0.1697 -0.1149 -0.0279
14306SOL    HW144359   5.082   5.047  10.561  1.5453  1.5822  1.0002
14306SOL    HW244360   5.036   5.183  10.609 -2.5514  0.6794  0.0731
14307SOL     OW44361   3.797   0.655  11.835  0.3317 -0.5804  0.4254
14307SOL    HW144362   3.728   0.620  11.892 -0.3460  1.3381  0.8337
14307SOL    HW244363   3.751   0.711  11.773  1.4467  0.1210  0.2085
14308SOL     OW44364   5.351   1.239  11.591  0.5803  0.6608 -0.1705
14308SOL    HW144365   5.280   1.218  11.652 -0.6841  0.7684 -1.5480
14308SOL    HW244366   5.417   1.172  11.607  0.3894  0.8328  1.4737
14309SOL     OW44367   4.329   2.256  10.386  0.2212 -0.3281 -0.0603
14309SOL    HW144368   4.236   2.239  10.371  0.3395 -0.3156 -0.8160
14309SOL    HW244369   4.337   2.351  10.380  0.3794 -0.3712 -0.5885
14310SOL     OW44370   2.480   2.662  10.941 -0.2047 -0.4118  0.7665
14310SOL    HW144371   2.490   2.660  11.036  2.2943  1.4358  0.6506
14310SOL    HW244372   2.516   2.578  10.911 -0.6084 -0.8168  1.3986
14311SOL     OW44373   3.260   1.695   9.550  0.3731 -0.0773 -0.4456
14311SOL    HW144374   3.190   1.650   9.503  1.3073  0.0938 -2.0489
14311SOL    HW244375   3.340   1.650   9.523  1.1949  1.7043 -1.0703
14312SOL     OW44376   3.341   2.111  11.584  0.6812 -0.1671  0.0289
14312SOL    HW144377   3.338   2.156  11.500  1.7980 -0.1583 -0.0126
14312SOL    HW244378   3.249   2.098  11.607  0.3397 -1.4531 -1.8632
14313SOL     OW44379   3.156   4.891   9.613 -0.3132  0.0136 -0.2705
14313SOL    HW144380   3.199   4.807   9.600  0.5375  0.0261  2.0919
14313SOL    HW244381   3.142   4.898   9.707 -3.1454  1.2063 -0.6682
14314SOL     OW44382   3.780   2.689  10.593 -0.2168  0.3782  0.7195
14314SOL    HW144383   3.868   2.718  10.568  0.0198 -1.3560 -0.5502
14314SOL    HW244384   3.730   2.771  10.602  1.0980  1.3130 -0.1172
14315SOL     OW44385   5.065   2.690   9.920 -0.3271  0.0285  0.3639
14315SOL    HW144386   5.073   2.746   9.843 -1.4655 -1.0196 -0.5673
14315SOL    HW244387   4.975   2.704   9.950  0.5274  1.5301  2.4365
14316SOL     OW44388   4.174   2.498  10.384  0.2152  0.5919 -0.2016
14316SOL    HW144389   4.224   2.525  10.461 -0.1906  2.2945 -0.4905
14316SOL    HW244390   4.091   2.466  10.419  0.4952  0.2113  0.1237
14317SOL     OW44391   4.395   0.735  11.120 -0.2370 -0.1369 -0.1082
14317SOL    HW144392   4.341   0.684  11.181  0.6439 -1.3851 -0.3516
14317SOL    HW244393   4.440   0.799  11.176 -0.7179 -0.1605  0.3144
14318SOL     OW44394   4.299   4.155  11.742  0.5407  0.6432 -0.1021
14318SOL    HW144395   4.293   4.239  11.787 -3.4482  0.6419 -0.3036
14318SOL    HW244396   4.227   4.157  11.678  1.0509 -2.4688 -0.9414
14319SOL     OW44397   2.925   3.150  10.584 -0.3074 -0.3678  0.2134
14319SOL    HW144398   3.014   3.138  10.550 -0.5759 -0.6921 -0.3938
14319SOL    HW244399   2.900   3.238  10.554 -0.0553 -0.1250  0.7063
14320SOL     OW44400   5.832   1.977  11.085 -0.4058  0.3268 -0.2045
14320SOL    HW144401   5.902   2.005  11.144 -0.8007 -0.4025  0.6339
14320SOL    HW244402   5.877   1.928  11.016 -0.0793 -0.0568  0.2773
14321SOL     OW44403   6.204   4.055  11.132 -0.1790  0.1966  0.2524
14321SOL    HW144404   6.253   4.137  11.131 -0.9207  0.6404 -0.6061
14321SOL    HW244405   6.138   4.065  11.063 -0.5124 -0.9774  0.3771
14322SOL     OW44406   3.291   1.278  10.139 -0.3819  0.0400  0.7378
14322SOL    HW144407   3.221   1.309  10.082 -0.8053  1.0870  1.7729
14322SOL    HW244408   3.250   1.208  10.191 -0.0300 -0.8297 -0.1202
14323SOL     OW44409   5.043   2.778  11.870  0.6961 -0.2422  0.1784
14323SOL    HW144410   5.005   2.861  11.898  0.5489 -0.5023  0.7820
14323SOL    HW244411   5.031   2.776  11.775 -2.9410 -1.3395  0.5240
14324SOL     OW44412   1.821   1.584  10.333  0.4865 -0.2108  0.4271
14324SOL    HW144413   1.759   1.643  10.291  0.2685 -0.7294  0.0016
14324SOL    HW244414   1.862   1.636  10.402 -1.1503 -0.1592  1.3990
14325SOL     OW44415   5.159   1.698  11.805  0.0152  0.2188  0.3746
14325SOL    HW144416   5.241   1.689  11.757 -0.0459  0.8431  0.1450
14325SOL    HW244417   5.154   1.791  11.828 -0.9867  0.3387 -0.2569
14326SOL     OW44418   5.974   3.797   9.984  0.4378  0.2882  0.3375
14326SOL    HW144419   5.998   3.885   9.954  0.9494  1.0636  2.8157
14326SOL    HW244420   6.044   3.771  10.044 -0.2533 -1.3700  0.5001
14327SOL     OW44421   4.679   1.928  11.050 -0.2672  0.0912 -0.3970
14327SOL    HW144422   4.733   1.884  11.116 -0.2840 -2.2079 -1.8319
14327SOL    HW244423   4.593   1.886  11.057 -1.0611  1.6767 -0.1350
14328SOL     OW44424   4.091   3.132  10.095  0.4195 -0.7730  0.4827
14328SOL    HW144425   4.171   3.168  10.058  0.3737 -1.0328  0.1255
14328SOL    HW244426   4.121   3.062  10.153  0.3867 -2.0020 -0.9311
14329SOL     OW44427   3.869   2.997  10.388 -0.3112  0.1131 -0.0100
14329SOL    HW144428   3.785   2.951  10.393 -0.3369  0.2042  0.4930
14329SOL    HW244429   3.850   3.084  10.422  0.5879 -0.7552  3.0529
14330SOL     OW44430   5.282   1.976   9.413  0.2794 -0.3368  0.1966
14330SOL    HW144431   5.347   2.039   9.380  0.4117 -0.4037  0.3293
14330SOL    HW244432   5.333   1.913   9.464 -0.0345  0.3213  1.3613
14331SOL     OW44433   5.150   2.267  11.306  0.3212  0.7769  0.0633
14331SOL    HW144434   5.117   2.344  11.259 -0.0376  0.6086  0.0346
14331SOL    HW244435   5.071   2.220  11.332  0.4296  1.5047  1.9072
14332SOL     OW44436   4.300   7.516   9.500  0.4268 -0.3296 -0.3174
14332SOL    HW144437   4.282   7.500   9.407  0.6297  3.3091 -1.1225
14332SOL    HW244438   4.225   7.565   9.532  0.9466 -0.4074  1.1130
14333SOL     OW44439   4.948   2.201   0.925  0.0382 -0.6657 -0.2694
14333SOL    HW144440   4.933   2.294   0.944 -1.1420 -0.9344  0.2213
14333SOL    HW244441   5.036   2.183   0.959 -0.2696 -0.0491  0.9267
14334SOL     OW44442   3.510   3.627  10.206 -0.0618  0.7117  0.2827
14334SOL    HW144443   3.512   3.722  10.197  2.0562  0.9372  2.2605
14334SOL    HW244444   3.547   3.610  10.292 -1.0263 -1.9111  0.2682
14335SOL     OW44445   5.629   1.731  11.467  0.4565  0.0775 -0.3013
14335SOL    HW144446   5.598   1.761  11.553  0.1497  0.8280 -0.6595
14335SOL    HW244447   5.569   1.771  11.405  0.4096 -0.8236 -0.8485
14336SOL     OW44448   3.922   3.652  10.231 -0.3144  0.5700 -0.5510
14336SOL    HW144449   3.887   3.569  10.200  0.2281  0.3216 -0.5110
14336SOL    HW244450   3.851   3.690  10.283 -0.5365  0.0962 -0.5064
14337SOL     OW44451   3.730   0.917  10.227  0.3292 -0.2362 -0.2187
14337SOL    HW144452   3.701   0.828  10.246  2.2527 -1.3170 -1.9036
14337SOL    HW244453   3.669   0.973  10.274 -1.7665 -2.4032 -0.1779
14338SOL     OW44454   6.044   1.211  10.654  0.4607  0.7114  0.1301
14338SOL    HW144455   5.975   1.154  10.620  1.2527 -0.7279  0.8806
14338SOL    HW244456   5.997   1.275  10.707 -0.3461 -0.0194  0.3262
14339SOL     OW44457   4.252   2.428   9.303  0.5823  0.1654 -0.6253
14339SOL    HW144458   4.282   2.344   9.270 -2.5096 -0.9319 -0.9329
14339SOL    HW244459   4.247   2.416   9.398  0.8390  0.2577 -0.5997
14340SOL     OW44460   3.827   1.946   9.072 -0.1372 -0.2656 -0.2680
14340SOL    HW144461   3.832   1.888   8.996 -1.1629 -0.1968 -0.4048
14340SOL    HW244462   3.772   1.899   9.135  0.5882 -0.2615  0.3861
14341SOL     OW44463   4.287   4.269   9.764  0.0041 -0.4111  0.0401
14341SOL    HW144464   4.303   4.250   9.671  0.1479 -0.3241  0.0457
14341SOL    HW244465   4.300   4.364   9.771  1.4817 -0.6185  0.4336
14342SOL     OW44466   5.986   1.878  10.623  0.3851  0.1892 -0.5490
14342SOL    HW144467   6.002   1.795  10.668 -0.2549 -0.2620 -1.1373
14342SOL    HW244468   5.908   1.913  10.664  0.9131  0.7392  0.0125
14343SOL     OW44469   4.645   0.766  11.300  0.2999 -0.7218 -0.2717
14343SOL    HW144470   4.609   0.700  11.359 -1.2135 -0.3329 -0.7027
14343SOL    HW244471   4.596   0.846  11.321  0.2351 -0.4050 -1.5294
14344SOL     OW44472   4.071   2.089  10.414 -0.6605  0.6070 -0.0413
14344SOL    HW144473   3.976   2.099  10.403 -1.0389 -2.6330 -0.6394
14344SOL    HW244474   4.086   1.996  10.404  2.5142  0.9005  1.0912
14345SOL     OW44475   4.519   3.300   9.761 -0.9442  0.8362  0.4002
14345SOL    HW144476   4.479   3.384   9.785 -1.6095  0.5147  0.4375
14345SOL    HW244477   4.501   3.291   9.668 -0.2309  1.0775  0.2378
14346SOL     OW44478   4.818   2.136   7.888  0.0856 -0.4626  0.4569
14346SOL    HW144479   4.822   2.228   7.862  0.3068 -0.0346  1.8958
14346SOL    HW244480   4.908   2.114   7.912  0.0821 -1.1384 -0.1048
14347SOL     OW44481   4.178   2.708  10.845  0.3473  0.1001  0.5655
14347SOL    HW144482   4.103   2.651  10.832  0.5057  0.0408 -0.1283
14347SOL    HW244483   4.240   2.655  10.895  0.8954 -0.7042 -0.9012
14348SOL     OW44484   6.020   0.488  10.765  0.6246 -0.5611  0.1515
14348SOL    HW144485   6.045   0.576  10.738 -0.3926 -0.5681 -0.8587
14348SOL    HW244486   6.104   0.446  10.787  1.1940  0.4025 -0.1034
14349SOL     OW44487   4.550   4.353  10.689  0.5548 -0.3236  0.1451
14349SOL    HW144488   4.634   4.337  10.644  1.6343  2.5856  0.9245
14349SOL    HW244489   4.573   4.408  10.763 -1.7113 -1.9482  2.1865
14350SOL     OW44490   5.092   3.724  10.760  0.0666 -0.2886 -0.0235
14350SOL    HW144491   5.171   3.778  10.764 -0.1774  0.0474  0.5240
14350SOL    HW244492   5.113   3.647  10.813 -0.2312  0.1707  0.7900
14351SOL     OW44493   3.566   3.707  10.736 -0.2320 -0.0583 -0.4682
14351SOL    HW144494   3.639   3.652  10.761 -0.2427 -0.1779 -0.7033
14351SOL    HW244495   3.563   3.776  10.803  1.2992  1.0726 -1.4970
14352SOL     OW44496   6.116   4.284   7.968 -0.1619  0.1767  0.2173
14352SOL    HW144497   6.023   4.266   7.953  0.2897 -2.0640 -0.2215
14352SOL    HW244498   6.140   4.225   8.039  0.6059  1.8554  1.4179
14353SOL     OW44499   5.414   3.544  10.725  0.2255 -0.7490 -0.5550
14353SOL    HW144500   5.451   3.456  10.719 -1.0985 -1.3486 -0.2691
14353SOL    HW244501   5.332   3.532  10.772 -0.1057  0.6101 -0.7588
14354SOL     OW44502   4.499   2.174   9.779 -0.3259 -0.1355  0.3046
14354SOL    HW144503   4.443   2.176   9.857  1.0325 -1.8661  1.3944
14354SOL    HW244504   4.578   2.128   9.807  0.0429 -1.2175 -2.2029
14355SOL     OW44505   6.247   0.915  10.835  0.8409 -0.3106  0.2031
14355SOL    HW144506   6.155   0.891  10.823  0.4465  1.0603  0.2447
14355SOL    HW244507   6.283   0.847  10.891 -0.4965 -0.1756  1.2677
14356SOL     OW44508   5.848   3.858  11.564 -0.6624  0.5404  0.0796
14356SOL    HW144509   5.778   3.916  11.595 -0.5729  0.7061 -0.0250
14356SOL    HW244510   5.871   3.805  11.640  0.5123  1.8906  0.7119
14357SOL     OW44511   6.842   2.366  11.158 -0.1955  0.0527  0.0668
14357SOL    HW144512   6.936   2.354  11.144 -0.1576 -0.7688  0.9368
14357SOL    HW244513   6.833   2.456  11.189  0.4246 -0.1511  0.8753
14358SOL     OW44514   4.595   2.705  10.406 -0.7317  0.1295  0.2770
14358SOL    HW144515   4.518   2.762  10.396 -2.4245 -1.9480  0.8808
14358SOL    HW244516   4.629   2.696  10.317 -2.2017 -0.2487 -0.2677
14359SOL     OW44517   5.210   3.771   9.940  0.3775 -0.8083 -0.2403
14359SOL    HW144518   5.199   3.783   9.846 -0.3350  0.1184 -0.0516
14359SOL    HW244519   5.146   3.830   9.980  0.2280 -1.6468  0.8229
14360SOL     OW44520   4.463   2.400   9.625 -0.2630  0.2071 -0.3868
14360SOL    HW144521   4.541   2.455   9.623 -0.8111  0.9890 -0.9894
14360SOL    HW244522   4.483   2.332   9.689  0.9467  0.3266 -0.6254
14361SOL     OW44523   6.323   7.562  10.347  0.0374  0.1503  0.0080
14361SOL    HW144524   6.232   7.581  10.373 -0.2929 -0.6114 -0.5530
14361SOL    HW244525   6.374   7.633  10.386 -0.8050  0.6186  0.2938
14362SOL     OW44526   4.736   3.152  10.831  0.1362 -0.3346  0.0416
14362SOL    HW144527   4.773   3.088  10.770  0.4736  0.3347 -0.4744
14362SOL    HW244528   4.657   3.184  10.787 -0.2388 -0.6637  0.4671
14363SOL     OW44529   4.221   0.867  11.343 -0.0522  0.2387  0.1339
14363SOL    HW144530   4.187   0.788  11.383  1.8699 -0.4127  0.6041
14363SOL    HW244531   4.144   0.912  11.308 -1.5574 -0.3134  2.4996
14364SOL     OW44532   4.317   3.153  10.600  0.5284 -0.2630  0.7261
14364SOL    HW144533   4.410   3.176  10.599  0.8164 -1.0412  3.1512
14364SOL    HW244534   4.313   3.071  10.649 -1.4543 -0.1338  0.8530
14365SOL     OW44535   5.092   2.613  11.408 -0.6543  0.3476 -0.0843
14365SOL    HW144536   5.031   2.542  11.431  1.5091 -1.0130  1.9480
14365SOL    HW244537   5.086   2.619  11.313 -2.3698 -1.1890 -0.1368
14366SOL     OW44538   3.027   3.871   9.905  0.0117  0.1001 -0.0890
14366SOL    HW144539   3.027   3.875   9.809  0.6400 -0.9385 -0.1485
14366SOL    HW244540   3.090   3.801   9.926 -0.6472 -0.1691  1.0543
14367SOL     OW44541   3.230   0.636  10.855 -0.4178 -0.1767  0.3255
14367SOL    HW144542   3.149   0.621  10.808 -0.3544  1.1278 -0.2416
14367SOL    HW244543   3.214   0.715  10.907 -0.1272 -0.9735  1.6751
14368SOL     OW44544   4.706   3.546   9.748  0.7670  0.3521  0.1936
14368SOL    HW144545   4.704   3.615   9.815  1.9695 -1.7559  2.6047
14368SOL    HW244546   4.618   3.508   9.752  0.6054  0.7055  0.0390
14369SOL     OW44547   3.454   1.360  10.563  0.4708  0.2955 -0.0420
14369SOL    HW144548   3.470   1.397  10.476  1.8908 -0.6776 -0.2386
14369SOL    HW244549   3.506   1.280  10.564 -1.8805 -1.3273  0.6280
14370SOL     OW44550   5.095   1.751  10.092 -0.3169  0.3250 -0.1471
14370SOL    HW144551   5.163   1.812  10.120  0.1379 -0.0559 -0.4190
14370SOL    HW244552   5.108   1.741   9.998 -1.5299  1.2093 -0.4334
14371SOL     OW44553   2.839   3.338  11.516  0.4313  0.1109 -0.5723
14371SOL    HW144554   2.918   3.335  11.569 -0.8518  0.6239  1.4672
14371SOL    HW244555   2.790   3.260  11.541 -0.5335  0.7501 -0.4217
14372SOL     OW44556   4.109   2.977  11.511 -0.5093  0.8071 -0.6173
14372SOL    HW144557   4.172   2.995  11.441 -0.1451  0.0265 -0.5092
14372SOL    HW244558   4.031   2.946  11.466  0.0173 -0.5353 -0.6773
14373SOL     OW44559   5.694   3.171   0.730  0.1164 -0.1126 -0.0424
14373SOL    HW144560   5.601   3.165   0.752  0.0515  1.9944  0.5306
14373SOL    HW244561   5.719   3.260   0.757  0.9703  1.4364 -4.8921
14374SOL     OW44562   4.235   0.600  11.299 -0.4875 -0.4288 -0.5707
14374SOL    HW144563   4.172   0.528  11.300  0.1108 -0.9570 -0.7765
14374SOL    HW244564   4.320   0.558  11.309 -0.2571  0.3923  1.7113
14375SOL     OW44565   5.373   1.824  11.633 -0.1114  0.4234  0.3568
14375SOL    HW144566   5.452   1.867  11.601  0.2181  1.5728  2.5486
14375SOL    HW244567   5.375   1.837  11.727 -3.3076  1.1662  0.4229
14376SOL     OW44568   5.507   1.666  10.074 -0.2551 -0.2542 -0.5376
14376SOL    HW144569   5.452   1.738  10.103  2.6784  1.9935 -0.0175
14376SOL    HW244570   5.587   1.675  10.125  2.4700 -0.3410 -4.3284
14377SOL     OW44571   4.213   5.405  11.044 -0.6171 -0.5344  0.0354
14377SOL    HW144572   4.190   5.469  10.977  3.1691  0.8283 -0.2268
14377SOL    HW244573   4.177   5.322  11.012 -0.8506  0.4728 -2.5408
14378SOL     OW44574   4.341   1.211   8.088 -0.2296  0.5960 -0.1677
14378SOL    HW144575   4.361   1.287   8.142  2.8045  0.0856 -0.4351
14378SOL    HW244576   4.345   1.137   8.148  0.6556  0.2850 -0.5961
14379SOL     OW44577   2.502   2.687  12.053 -0.4086  0.2802  0.5584
14379SOL    HW144578   2.547   2.767  12.080  0.7258 -0.1130 -0.0698
14379SOL    HW244579   2.412   2.698  12.082  0.0037  1.2791  1.5103
14380SOL     OW44580   2.267   4.713   8.992  0.1873 -0.7933 -0.6904
14380SOL    HW144581   2.214   4.788   8.966 -0.9386 -1.8735 -1.6581
14380SOL    HW244582   2.296   4.674   8.909  0.2932 -1.7434 -0.2227
14381SOL     OW44583   4.646   0.514   8.936  0.2699 -0.6132  0.2979
14381SOL    HW144584   4.700   0.532   8.859  0.1761 -2.7824 -0.3463
14381SOL    HW244585   4.560   0.551   8.915  0.8348  0.7992  0.3537
14382SOL     OW44586   6.204   1.316  10.932  0.2112 -0.7870  0.0031
14382SOL    HW144587   6.118   1.339  10.896 -0.1235 -0.5091  0.9384
14382SOL    HW244588   6.185   1.249  10.997  0.9886 -2.4549 -1.4390
14383SOL     OW44589   5.333   2.573  10.220 -0.1134 -0.1150 -0.3218
14383SOL    HW144590   5.270   2.589  10.290 -0.6944 -1.1247 -0.6009
14383SOL    HW244591   5.349   2.660  10.182 -0.6401  0.2779  0.3271
14384SOL     OW44592   4.264   1.832   7.957  0.3907 -0.5999  0.5537
14384SOL    HW144593   4.223   1.909   7.997 -0.8986 -0.4462 -0.9892
14384SOL    HW244594   4.191   1.777   7.930  1.2868 -2.0555  0.9620
14385SOL     OW44595   4.915   0.675  10.285  0.3387  0.4678  0.1098
14385SOL    HW144596   4.993   0.709  10.329  1.2586 -2.3309  0.8174
14385SOL    HW244597   4.843   0.693  10.346  0.3898  2.8346 -0.4381
14386SOL     OW44598   4.156   3.661  11.236  0.0555  0.1427  0.0535
14386SOL    HW144599   4.251   3.674  11.227 -0.0338  1.4855  0.7369
14386SOL    HW244600   4.125   3.653  11.146  0.5213  2.3761 -0.3653
14387SOL     OW44601   4.940   5.086  11.507  0.1572 -0.0320  0.6665
14387SOL    HW144602   4.894   5.146  11.448  0.2552  0.5698  1.1896
14387SOL    HW244603   4.967   5.013  11.451  0.7843  0.8091 -0.1560
14388SOL     OW44604   2.681   2.244   0.140 -0.7150  0.3822 -0.2323
14388SOL    HW144605   2.700   2.195   0.060 -0.8498  2.1634 -1.4207
14388SOL    HW244606   2.766   2.278   0.169 -0.5541 -0.8387  0.8346
14389SOL     OW44607   7.596   2.134   7.047  0.3737  0.1852  0.2228
14389SOL    HW144608   7.507   2.170   7.038  0.5509  1.1677  1.9669
14389SOL    HW244609   7.601   2.065   6.981 -0.8079  1.8062 -1.6988
14390SOL     OW44610   5.456   2.299   9.068 -0.2182  0.2443 -0.1341
14390SOL    HW144611   5.363   2.317   9.080 -0.4179  0.0639 -1.2841
14390SOL    HW244612   5.490   2.377   9.022  0.1755  0.2637  0.1824
14391SOL     OW44613   3.123   2.089   9.682 -0.6669  0.3830 -0.4841
14391SOL    HW144614   3.134   2.070   9.775 -1.6540  0.1747 -0.3992
14391SOL    HW244615   3.207   2.064   9.643  0.5000  2.3422  0.6032
14392SOL     OW44616   4.478   4.070   9.149 -0.6412  0.1049 -0.1551
14392SOL    HW144617   4.559   4.074   9.099 -1.2445 -1.2202 -1.3072
14392SOL    HW244618   4.505   4.077   9.240  1.0081 -2.2787 -0.3667
14393SOL     OW44619   4.830   2.354  11.276  0.0136 -0.1139  0.1455
14393SOL    HW144620   4.770   2.279  11.283 -0.0813 -0.0877 -0.3419
14393SOL    HW244621   4.856   2.372  11.367  0.3221 -0.9671  0.2383
14394SOL     OW44622   3.278   0.870  10.706  0.0430  1.1022  0.5118
14394SOL    HW144623   3.295   0.788  10.752 -0.6131  0.7999  0.2253
14394SOL    HW244624   3.201   0.852  10.653  0.4250  1.6396 -0.2313
14395SOL     OW44625   5.121   2.344  10.139  0.0614 -0.2181  0.2881
14395SOL    HW144626   5.178   2.331  10.215  0.9472  0.6573 -0.1997
14395SOL    HW244627   5.167   2.409  10.085 -1.5475  0.7708  0.0237
14396SOL     OW44628   2.187   3.792   9.818 -0.0831  0.4314  0.5666
14396SOL    HW144629   2.155   3.705   9.839 -0.0917  0.7471  1.9251
14396SOL    HW244630   2.143   3.850   9.880  0.5624  1.2971  0.2423
14397SOL     OW44631   3.757   2.643  11.129 -0.4799  0.4813 -0.6988
14397SOL    HW144632   3.820   2.699  11.083 -0.3196 -0.3031 -1.4524
14397SOL    HW244633   3.731   2.578  11.064  0.3157 -1.1337  0.5277
14398SOL     OW44634   4.847   2.054  10.920 -0.2419 -0.0758  0.1750
14398SOL    HW144635   4.806   2.062  10.834  1.3206 -3.8457 -1.1274
14398SOL    HW244636   4.781   2.012  10.975  0.1740 -1.7260 -0.5324
14399SOL     OW44637   5.105   2.999  11.392  0.0823 -0.3285 -0.1558
14399SOL    HW144638   5.041   3.047  11.443  0.1647  1.1327 -1.3403
14399SOL    HW244639   5.065   2.990  11.305  1.5854  1.0214 -1.0611
14400SOL     OW44640   6.200   1.103  11.912 -0.0032 -0.3147 -0.4956
14400SOL    HW144641   6.280   1.055  11.933  0.6023  1.1680  0.8042
14400SOL    HW244642   6.137   1.035  11.888  1.1865 -1.6370 -0.0397
14401SOL     OW44643   6.773   2.440   0.060  0.3835 -0.2410  0.2294
14401SOL    HW144644   6.784   2.393  -0.022 -0.7084 -0.7135  0.3354
14401SOL    HW244645   6.679   2.438   0.076  0.2925  1.9897  0.2360
14402SOL     OW44646   4.619   2.578  10.973 -0.2648 -0.3402  0.2205
14402SOL    HW144647   4.528   2.601  10.992 -0.4541  0.8143 -1.7551
14402SOL    HW244648   4.626   2.586  10.878  2.0817  0.2609  0.3851
14403SOL     OW44649   4.677   1.183  12.211  1.0363  0.1222 -0.0290
14403SOL    HW144650   4.663   1.112  12.273  0.0786 -0.5553 -0.9764
14403SOL    HW244651   4.764   1.167  12.174  0.7154 -0.7483 -0.4404
14404SOL     OW44652   2.553   4.820  10.648 -0.1373 -0.1860  0.5757
14404SOL    HW144653   2.458   4.813  10.651 -0.1249 -0.3934  0.4450
14404SOL    HW244654   2.579   4.828  10.740 -0.2944  0.0409  0.6017
14405SOL     OW44655   5.653   2.356  10.767 -0.1694  0.3791  0.0157
14405SOL    HW144656   5.647   2.437  10.716  0.0012  0.4793  0.1494
14405SOL    HW244657   5.747   2.341  10.777 -0.1896 -0.4072 -0.8912
14406SOL     OW44658   3.623   2.892  10.649  0.3260 -0.3364  0.2559
14406SOL    HW144659   3.646   2.985  10.650 -0.3716 -0.1464 -0.2230
14406SOL    HW244660   3.551   2.886  10.586  0.7385 -1.2963 -0.1516
14407SOL     OW44661   3.824   1.438  10.231 -0.2986 -0.2967 -0.2765
14407SOL    HW144662   3.781   1.398  10.306 -2.9042  1.7954 -0.5248
14407SOL    HW244663   3.829   1.531  10.253 -1.7967  0.4969 -2.8885
14408SOL     OW44664   4.032   3.412  11.312  0.2719  0.9580 -0.1473
14408SOL    HW144665   3.949   3.457  11.298 -0.1098  0.1502 -0.5535
14408SOL    HW244666   4.099   3.479  11.297 -0.2740  1.3672 -0.8125
14409SOL     OW44667   4.270   4.227   0.207  0.0531  0.0332 -0.1028
14409SOL    HW144668   4.360   4.212   0.180  0.1617  1.4948 -0.6157
14409SOL    HW244669   4.218   4.189   0.136  0.2001 -1.9554  0.7912
14410SOL     OW44670   5.096   2.990   9.297  0.4297  0.4032  0.5279
14410SOL    HW144671   5.011   3.034   9.290  0.4630  0.3529 -0.2567
14410SOL    HW244672   5.083   2.905   9.254  0.8102  0.2914  0.6282
14411SOL     OW44673   2.966   2.937  11.900 -0.1470 -0.0197  0.0389
14411SOL    HW144674   3.024   2.951  11.825 -1.8006  3.1266 -0.8195
14411SOL    HW244675   2.895   2.883  11.866  1.5577 -2.9782  0.8208
14412SOL     OW44676   3.427   3.553  10.975  0.7856 -0.3712 -0.2183
14412SOL    HW144677   3.399   3.644  10.980  0.9744 -0.3560  0.5763
14412SOL    HW244678   3.387   3.520  10.894  1.0302  0.5167 -0.7188
14413SOL     OW44679   4.885   2.443  11.529  0.1302  0.3461  0.3720
14413SOL    HW144680   4.857   2.374  11.590  0.9552 -0.3741 -0.0350
14413SOL    HW244681   4.827   2.517  11.547 -1.0871 -0.6112  0.5032
14414SOL     OW44682   3.791   3.533  11.237 -0.2747  0.0201 -0.3032
14414SOL    HW144683   3.699   3.544  11.213 -0.2278  1.9005  0.1968
14414SOL    HW244684   3.836   3.609  11.199  0.5701  0.6238  1.7137
14415SOL     OW44685   6.096   1.793  11.420 -0.7921  0.6529 -0.4702
14415SOL    HW144686   6.147   1.808  11.499  0.0198  0.8995 -1.0278
14415SOL    HW244687   6.089   1.698  11.413  0.7376  0.5741 -1.0972
14416SOL     OW44688   4.721   2.900   9.979  0.1388 -0.1437  0.5828
14416SOL    HW144689   4.769   2.835  10.030 -1.0208 -2.8611 -1.5504
14416SOL    HW244690   4.786   2.938   9.921  0.5473 -0.5684  0.7549
14417SOL     OW44691   2.787   3.720   9.907 -0.1440  0.5625  0.6404
14417SOL    HW144692   2.866   3.769   9.883  0.6825 -0.6069  0.8574
14417SOL    HW244693   2.740   3.777   9.967  1.6676  0.4341  2.2827
14418SOL     OW44694   7.290   1.817   9.144 -1.0027 -0.0618  0.0590
14418SOL    HW144695   7.257   1.733   9.177 -1.4777  0.2454  0.3806
14418SOL    HW244696   7.234   1.882   9.186  1.2377  0.6422  2.2570
14419SOL     OW44697   5.475   2.934  11.947 -0.3446  0.4706 -0.3476
14419SOL    HW144698   5.409   2.998  11.922 -0.9180 -0.2344 -0.6897
14419SOL    HW244699   5.550   2.986  11.976 -0.2013  1.3137 -2.1263
14420SOL     OW44700   4.623   3.172  11.426 -0.6922  0.5390  0.6076
14420SOL    HW144701   4.612   3.114  11.501  3.1131 -0.0296  0.9376
14420SOL    HW244702   4.689   3.236  11.454 -0.7853  1.6649 -1.5428
14421SOL     OW44703   4.709   1.776  10.249  0.1020  0.1390  0.0511
14421SOL    HW144704   4.681   1.727  10.171 -0.9619  1.1916 -0.2581
14421SOL    HW244705   4.681   1.723  10.322  0.5841 -0.5771 -0.2660
14422SOL     OW44706   4.220   2.600  11.217  0.2891  0.0291  0.4319
14422SOL    HW144707   4.228   2.513  11.256  0.3632  0.6425  1.8373
14422SOL    HW244708   4.143   2.638  11.258  1.0729  1.1547  0.9269
14423SOL     OW44709   2.926   3.009  10.816  0.2436  0.3360 -0.2388
14423SOL    HW144710   2.904   3.053  10.734  2.2605  0.2849 -0.8695
14423SOL    HW244711   2.942   2.918  10.791 -0.5213 -0.0062  0.4693
14424SOL     OW44712   4.214   2.335   9.568  0.5013 -0.0271  0.0478
14424SOL    HW144713   4.156   2.382   9.628 -0.3312  0.5100 -1.1519
14424SOL    HW244714   4.302   2.358   9.598  0.1152 -0.2741  1.4468
14425SOL     OW44715   5.083   2.544   9.609  0.4319 -0.0843 -0.0997
14425SOL    HW144716   5.054   2.635   9.617 -0.0711 -0.1485 -0.9585
14425SOL    HW244717   5.163   2.540   9.659  0.0198  0.6300  0.6501
14426SOL     OW44718   4.028   3.383   0.649 -0.1182 -0.2106 -0.0696
14426SOL    HW144719   4.013   3.289   0.639  1.1350 -0.3246 -1.1402
14426SOL    HW244720   4.108   3.400   0.599 -0.9141  1.6251 -0.8071
14427SOL     OW44721   5.310   2.664  11.013 -0.1350  0.6754  0.1690
14427SOL    HW144722   5.301   2.688  10.921 -1.1201 -0.7772 -0.1515
14427SOL    HW244723   5.404   2.649  11.025 -0.0441  0.4647 -0.7189
14428SOL     OW44724   4.549   1.873   7.225 -0.2273  0.3412  0.1041
14428SOL    HW144725   4.608   1.944   7.201 -0.7169  1.0326  0.8658
14428SOL    HW244726   4.603   1.814   7.278  0.2993 -0.1080 -0.9098
14429SOL     OW44727   4.572   1.408  12.031 -0.6127 -0.3123  0.5848
14429SOL    HW144728   4.609   1.325  12.062 -1.4684 -1.2684 -0.8502
14429SOL    HW244729   4.523   1.384  11.953 -2.4435  1.2538  1.1919
14430SOL     OW44730   3.323   2.592   9.984 -0.1054  0.1973 -0.1009
14430SOL    HW144731   3.229   2.605   9.969 -0.3139 -0.9887  0.0976
14430SOL    HW244732   3.365   2.642   9.914 -0.9266 -0.5233 -1.1503
14431SOL     OW44733   4.467   2.610   9.164  0.9873  0.0939 -0.0113
14431SOL    HW144734   4.412   2.649   9.096  1.7098 -0.7067 -1.0940
14431SOL    HW244735   4.406   2.555   9.214  0.6451 -0.2415 -0.7652
14432SOL     OW44736   3.361   1.750  10.744  0.1169  0.5849  0.0361
14432SOL    HW144737   3.328   1.684  10.805 -0.0535  0.1042 -0.5589
14432SOL    HW244738   3.456   1.736  10.743  0.3048  1.5862  1.3096
14433SOL     OW44739   5.253   0.586   0.845 -0.1127  0.2533 -0.1234
14433SOL    HW144740   5.256   0.679   0.823  0.0234  0.6923  1.5636
14433SOL    HW244741   5.327   0.548   0.797  0.9024  1.3532  0.4852
14434SOL     OW44742   2.990   1.531  11.691 -0.2782  1.1723  0.0652
14434SOL    HW144743   2.918   1.568  11.640  0.0302  1.9521  0.1854
14434SOL    HW244744   2.975   1.436  11.688 -0.2813  1.1898 -1.4660
14435SOL     OW44745   6.115   2.999  11.433 -0.1876  0.2299 -0.3078
14435SOL    HW144746   6.075   2.932  11.377  0.5235 -1.2851  0.9087
14435SOL    HW244747   6.049   3.018  11.499  1.1007 -2.7962  2.1321
14436SOL     OW44748   4.926   7.556  10.825 -0.5103  0.0915  0.2816
14436SOL    HW144749   4.905   7.521  10.912 -0.0487 -2.5839 -0.5877
14436SOL    HW244750   4.998   7.618  10.841 -0.8021  0.0662  1.8462
14437SOL     OW44751   6.378   3.218   9.764 -0.2525 -0.0042 -0.5898
14437SOL    HW144752   6.317   3.189   9.696 -0.6837  0.8663 -0.5893
14437SOL    HW244753   6.464   3.194   9.730 -0.5814 -1.2937 -0.5631
14438SOL     OW44754   4.032   2.913   0.011 -0.0359  0.0588 -0.0916
14438SOL    HW144755   3.995   2.997   0.040  0.5007  0.0155  0.7682
14438SOL    HW244756   3.959   2.867  -0.028 -0.3108  0.9829 -0.6945
14439SOL     OW44757   4.241   2.800   9.185  0.0494  0.7745 -0.0184
14439SOL    HW144758   4.191   2.861   9.132  0.5941  1.3013  0.0545
14439SOL    HW244759   4.235   2.836   9.274 -1.6113 -0.5919  0.4601
14440SOL     OW44760   3.025   3.317  10.186  1.1419 -0.3235 -0.0624
14440SOL    HW144761   2.976   3.396  10.209 -0.8248 -1.2597 -0.7720
14440SOL    HW244762   3.113   3.348  10.165  0.0989  1.8717 -1.5937
14441SOL     OW44763   4.101   3.696  10.956 -0.2487 -0.2201  0.3231
14441SOL    HW144764   4.079   3.623  10.898 -0.5290 -0.4195  0.6794
14441SOL    HW244765   4.171   3.742  10.910  2.7365 -2.8985  1.8561
14442SOL     OW44766   6.474   3.316  11.715  1.1235 -0.0412 -0.6909
14442SOL    HW144767   6.538   3.385  11.700  1.2320 -0.0028 -0.0678
14442SOL    HW244768   6.475   3.301  11.809 -1.5901  1.7105 -0.2783
14443SOL     OW44769   4.271   1.626  11.778 -0.0859 -0.0020 -0.1420
14443SOL    HW144770   4.280   1.718  11.752 -0.2747  0.5629  1.7028
14443SOL    HW244771   4.196   1.595  11.727 -0.3524  1.0070 -0.3937
14444SOL     OW44772   5.491   1.469   9.395  0.2003  0.1403 -0.5816
14444SOL    HW144773   5.551   1.414   9.445  0.2987  1.3958  0.7563
14444SOL    HW244774   5.448   1.409   9.335 -2.2277 -2.1939  3.0647
14445SOL     OW44775   3.675   1.811   9.268 -0.3328  0.0869  0.3310
14445SOL    HW144776   3.587   1.850   9.275  0.1143  1.3475 -0.5977
14445SOL    HW244777   3.707   1.808   9.358  0.0868  3.1568  0.4106
14446SOL     OW44778   6.318   2.744  11.053 -0.4200 -0.9103 -0.3811
14446SOL    HW144779   6.244   2.732  11.112 -0.4263 -0.5810 -0.3222
14446SOL    HW244780   6.344   2.835  11.064 -0.3514 -0.8748 -0.8074
14447SOL     OW44781   0.593   3.301  10.622 -0.4151 -0.4639  0.6295
14447SOL    HW144782   0.505   3.277  10.595 -0.4548 -0.7562  0.9989
14447SOL    HW244783   0.648   3.228  10.591 -0.2629 -0.1517  0.1624
14448SOL     OW44784   2.143   3.138  12.122 -0.2791 -0.1247  0.0973
14448SOL    HW144785   2.136   3.043  12.113  0.6896 -0.3431  1.3319
14448SOL    HW244786   2.209   3.164  12.058 -1.3463 -0.1013 -1.0337
14449SOL     OW44787   4.496   3.354  10.210  0.0404  0.7189 -0.3944
14449SOL    HW144788   4.475   3.268  10.173 -1.5213  0.7338  0.3791
14449SOL    HW244789   4.423   3.373  10.269  0.6532  2.3263 -0.1121
14450SOL     OW44790   3.889   1.955   9.973  0.0511 -0.0980 -0.0531
14450SOL    HW144791   3.863   1.902   9.897 -1.2714  0.9578 -0.3778
14450SOL    HW244792   3.810   2.005   9.995  0.8273  0.6354  1.1677
14451SOL     OW44793   4.734   4.181  10.592 -0.1833 -0.9863  0.3976
14451SOL    HW144794   4.756   4.118  10.661  2.5405  0.5964  1.1717
14451SOL    HW244795   4.796   4.253  10.606 -1.4116  0.6777 -2.0294
14452SOL     OW44796   3.972   2.655  11.305  0.2299  0.2010  0.5432
14452SOL    HW144797   3.936   2.730  11.352 -1.8908 -0.4694  0.1118
14452SOL    HW244798   3.898   2.620  11.255  1.8551 -0.4308 -1.5865
14453SOL     OW44799   4.673   1.419  11.106  0.1227 -0.7498 -0.1423
14453SOL    HW144800   4.668   1.325  11.088 -1.8226 -1.0388  1.5978
14453SOL    HW244801   4.685   1.425  11.200  0.3829  0.7822 -0.2489
14454SOL     OW44802   6.647   1.382  10.699  0.6403  0.2238 -0.5323
14454SOL    HW144803   6.601   1.299  10.686 -0.6153  1.0913 -2.1367
14454SOL    HW244804   6.616   1.414  10.784 -1.5394  0.5993 -1.3929
14455SOL     OW44805   4.417   1.763  11.157  0.0192 -0.2060  0.3568
14455SOL    HW144806   4.322   1.747  11.154 -0.1174  0.5883 -2.1310
14455SOL    HW244807   4.452   1.706  11.088  1.0559  1.1079 -0.2338
14456SOL     OW44808   4.885   3.220  10.424 -0.0975 -0.4905  0.1304
14456SOL    HW144809   4.895   3.314  10.412  2.1601 -0.5744  0.9206
14456SOL    HW244810   4.934   3.181  10.352 -1.9304 -1.1185 -0.8401
14457SOL     OW44811   3.457   2.856  11.477 -0.1784  0.0931 -0.2373
14457SOL    HW144812   3.363   2.840  11.470 -0.7478  2.9800 -0.1628
14457SOL    HW244813   3.489   2.850  11.387 -0.9929  1.8245 -0.6836
14458SOL     OW44814   3.718   3.968   9.909 -0.3528  0.1172 -0.0017
14458SOL    HW144815   3.699   3.875   9.896 -1.2913 -0.0020  1.8816
14458SOL    HW244816   3.665   4.013   9.843 -0.8889 -0.6339 -0.0874
14459SOL     OW44817   5.740   1.966  10.736  0.5945  0.2636 -0.3567
14459SOL    HW144818   5.712   1.985  10.647  0.2045 -2.2877 -0.8449
14459SOL    HW244819   5.663   1.928  10.778  0.3735  2.5161  1.5405
14460SOL     OW44820   5.799   0.348  11.295 -0.1069 -0.3208  0.5533
14460SOL    HW144821   5.860   0.342  11.368  0.0042  0.1091  0.5037
14460SOL    HW244822   5.784   0.258  11.267 -0.5962 -0.5266  1.4652
14461SOL     OW44823   3.773   2.218  10.232  0.6057  0.4251 -0.4236
14461SOL    HW144824   3.777   2.292  10.293 -1.5088 -0.1393  0.4907
14461SOL    HW244825   3.770   2.258  10.145  1.2579  1.3404 -0.0310
14462SOL     OW44826   3.831   4.046  10.770 -0.0259  0.3049  0.1764
14462SOL    HW144827   3.808   4.101  10.845 -0.1111 -0.4310  0.7042
14462SOL    HW244828   3.926   4.055  10.761  0.3464 -1.3064  1.7938
14463SOL     OW44829   5.728   1.976  10.072  0.1595  0.0711 -0.1876
14463SOL    HW144830   5.679   2.046  10.027  0.1894  1.0511  1.2581
14463SOL    HW244831   5.681   1.963  10.154  1.5270  0.0600  0.6131
14464SOL     OW44832   4.377   2.071  11.236  0.5079 -0.3292 -0.3639
14464SOL    HW144833   4.324   1.993  11.222 -1.0631  0.3582  1.2437
14464SOL    HW244834   4.392   2.106  11.148 -0.9462 -1.0561 -0.9427
14465SOL     OW44835   4.887   3.510  10.346 -0.0648 -0.3382  0.1561
14465SOL    HW144836   4.859   3.523  10.255  1.7057  0.5605 -0.2986
14465SOL    HW244837   4.830   3.568  10.396  0.7667  1.3024 -0.7162
14466SOL     OW44838   3.921   2.049  12.172  0.1369  0.1137 -0.2293
14466SOL    HW144839   3.965   2.132  12.186 -0.9956  0.4551  1.7615
14466SOL    HW244840   3.980   1.984  12.210 -0.5994  0.4673  1.6049
14467SOL     OW44841   4.721   1.289   0.011 -0.5277  0.8907  0.1383
14467SOL    HW144842   4.628   1.306  -0.005 -0.6530  1.9162  1.7689
14467SOL    HW244843   4.726   1.260   0.102  0.6415 -0.2847 -0.2611
14468SOL     OW44844   2.043   3.684   0.026  0.2966 -0.3094  0.5547
14468SOL    HW144845   2.110   3.742   0.061  0.1875 -0.1004  0.4181
14468SOL    HW244846   2.060   3.599   0.068  1.5585 -0.6428 -0.5795
14469SOL     OW44847   5.143   3.857  12.194  0.6410 -0.1243  0.1275
14469SOL    HW144848   5.060   3.812  12.204  1.1389 -0.7290  1.8563
14469SOL    HW244849   5.123   3.933  12.140 -0.6556 -1.2043 -0.9606
14470SOL     OW44850   5.184   2.469  12.190  0.4218  0.0511 -0.4894
14470SOL    HW144851   5.268   2.460  12.235  0.1135 -0.7031 -0.0355
14470SOL    HW244852   5.120   2.433  12.252 -0.3909  1.6158 -0.3645
14471SOL     OW44853   5.155   3.738   0.388 -0.1912 -0.2530 -0.5688
14471SOL    HW144854   5.108   3.718   0.469 -0.6244  0.6575 -0.5786
14471SOL    HW244855   5.087   3.771   0.329  0.5960  2.3260 -0.1531
14472SOL     OW44856   4.321   1.945  10.078  0.0477 -0.0660 -1.0897
14472SOL    HW144857   4.282   2.032  10.067  0.4161  0.3782  0.8291
14472SOL    HW244858   4.247   1.887  10.094 -0.0217  0.6185  1.5970
14473SOL     OW44859   3.377   4.111   1.172  0.3208  0.0515  0.5718
14473SOL    HW144860   3.364   4.031   1.121  2.8229 -0.3158  0.3543
14473SOL    HW244861   3.364   4.084   1.263  1.2097 -0.6495  0.5058
14474SOL     OW44862   5.826   2.542  11.030 -0.0731 -0.4554  0.6517
14474SOL    HW144863   5.847   2.458  10.991  2.1924 -0.2443  1.2603
14474SOL    HW244864   5.837   2.529  11.124 -0.7824  0.2402  0.8437
14475SOL     OW44865   4.753   2.712   0.547 -0.5975  0.4074  0.1550
14475SOL    HW144866   4.743   2.683   0.456  0.5882  0.7099 -0.0959
14475SOL    HW244867   4.758   2.808   0.540  2.8829  0.3421  0.0985
14476SOL     OW44868   4.097   1.117  12.390 -0.0389 -0.2314 -0.0749
14476SOL    HW144869   4.004   1.102  12.374 -0.0960 -0.1711  0.1941
14476SOL    HW244870   4.104   1.212  12.399  0.4245  0.0350 -2.4881
14477SOL     OW44871   3.660   4.633  12.371  0.2775 -0.1077 -0.0792
14477SOL    HW144872   3.717   4.697  12.414 -0.3861  0.1742  0.3895
14477SOL    HW244873   3.666   4.555  12.427 -1.1688  0.5025  0.9646
14478SOL     OW44874   2.979   4.249  10.848 -0.1389 -0.5698 -0.3185
14478SOL    HW144875   2.941   4.312  10.910 -0.7508 -0.5025 -0.7643
14478SOL    HW244876   2.975   4.165  10.893 -2.2788 -0.8605 -0.9513
14479SOL     OW44877   3.629   1.503  12.252 -0.0476 -0.0112  0.3138
14479SOL    HW144878   3.563   1.479  12.317 -1.5360 -0.5223 -1.3194
14479SOL    HW244879   3.676   1.421  12.234  0.2285  0.0859  0.5813
14480SOL     OW44880   3.211   2.735  12.299  0.1648  0.0671  0.2689
14480SOL    HW144881   3.167   2.779  12.372  0.1916 -0.3540  0.5479
14480SOL    HW244882   3.146   2.671  12.268 -0.1598  0.8177 -0.6264
14481SOL     OW44883   2.926   1.099  10.005  0.1876 -0.0214 -0.0654
14481SOL    HW144884   2.884   1.127   9.923 -1.0926  0.9869  0.9043
14481SOL    HW244885   2.936   1.004   9.995 -0.3814  0.0166 -1.1885
14482SOL     OW44886   3.405   4.829  11.880 -0.4224  0.1333  0.3304
14482SOL    HW144887   3.335   4.875  11.834  1.6770  1.0625 -2.1563
14482SOL    HW244888   3.399   4.860  11.970 -2.5734  0.8967 -0.0183
14483SOL     OW44889   2.290   2.479  10.539  0.3104  0.0532 -0.0548
14483SOL    HW144890   2.326   2.445  10.457 -0.0273 -1.2763  0.3284
14483SOL    HW244891   2.322   2.570  10.543  2.1227 -0.5187 -0.5961
14484SOL     OW44892   6.303   3.512  10.538 -0.3027  0.1551  0.7332
14484SOL    HW144893   6.209   3.494  10.535 -0.1237 -0.7204 -0.1066
14484SOL    HW244894   6.329   3.487  10.627 -0.1451 -3.6547 -0.2273
14485SOL     OW44895   6.906   1.342   0.203 -0.1548 -0.3203  0.1049
14485SOL    HW144896   6.999   1.358   0.218 -0.1752 -0.8223  0.8265
14485SOL    HW244897   6.900   1.319   0.110 -0.1009  3.4584 -0.9715
14486SOL     OW44898   3.838   2.026   1.222 -0.0390 -0.6195  0.1306
14486SOL    HW144899   3.804   1.945   1.183  0.0209 -0.9073  0.6728
14486SOL    HW244900   3.792   2.095   1.175  1.8827 -0.8381 -2.2769
14487SOL     OW44901   6.184   3.968   9.647 -0.7641  0.1665 -0.8168
14487SOL    HW144902   6.237   3.974   9.727 -0.3454  1.0340 -1.1541
14487SOL    HW244903   6.171   3.873   9.635 -0.1962 -0.0090 -0.1446
14488SOL     OW44904   3.225   1.687  11.668 -0.0946 -0.8689  0.9132
14488SOL    HW144905   3.149   1.631  11.654 -0.5992  0.0669 -0.2733
14488SOL    HW244906   3.189   1.776  11.666  1.1729 -0.3475 -0.9262
14489SOL     OW44907   4.775   3.044  11.091 -0.7365 -0.4879 -0.3200
14489SOL    HW144908   4.729   3.095  11.024  0.1901  1.3868  0.4092
14489SOL    HW244909   4.709   3.026  11.158 -0.6930  1.2637  0.2211
14490SOL     OW44910   4.726   1.417  11.384 -0.1748  0.6049 -0.1446
14490SOL    HW144911   4.707   1.360  11.458 -1.1816 -0.0999 -0.9133
14490SOL    HW244912   4.795   1.476  11.415 -0.1464 -0.0817  1.1334
14491SOL     OW44913   6.962   1.788  12.330  0.1950 -0.4616  0.1729
14491SOL    HW144914   6.937   1.876  12.360  1.9596 -0.1561  0.8613
14491SOL    HW244915   6.903   1.729  12.377 -0.0787  0.2679  0.7657
14492SOL     OW44916   6.310   3.669  10.002 -0.5674 -0.2143  0.0138
14492SOL    HW144917   6.339   3.627   9.921 -0.4698  0.7263 -0.4486
14492SOL    HW244918   6.317   3.763   9.985  1.7890  0.0455  1.9162
14493SOL     OW44919   4.450   2.490  10.530  0.2532  0.2249  0.4128
14493SOL    HW144920   4.478   2.575  10.496  1.1621 -0.2893 -0.1619
14493SOL    HW244921   4.530   2.439  10.537 -0.4992 -1.3735 -1.5056
14494SOL     OW44922   6.756   2.119  11.214 -0.3965 -0.2430  0.6103
14494SOL    HW144923   6.664   2.116  11.239 -0.1223 -0.2957  1.6449
14494SOL    HW244924   6.776   2.212  11.205 -0.9204 -0.2638 -1.0938
14495SOL     OW44925   4.104   3.148  12.121  0.0948  0.1556  0.2314
14495SOL    HW144926   4.153   3.160  12.039 -0.3287  1.2329  0.1281
14495SOL    HW244927   4.171   3.122  12.185  0.8547  1.7401  0.1287
14496SOL     OW44928   3.923   0.951  11.794 -0.1816  0.1876  0.2749
14496SOL    HW144929   3.846   0.951  11.737 -1.8241  3.0080  2.2007
14496SOL    HW244930   3.997   0.970  11.736 -1.0307 -1.5755 -1.4788
14497SOL     OW44931   4.057   2.469  12.149  0.6807 -0.2061  0.2568
14497SOL    HW144932   4.042   2.561  12.128  2.1349  0.1494  0.6769
14497SOL    HW244933   4.046   2.423  12.065 -2.5973 -0.0519  0.4787
14498SOL     OW44934   3.382   3.204  11.428 -0.5652 -0.4409 -0.0770
14498SOL    HW144935   3.451   3.218  11.362  1.5116 -1.5566  1.7271
14498SOL    HW244936   3.353   3.293  11.450  0.5936  0.1035 -0.6056
14499SOL     OW44937   6.430   1.894  11.796  0.0269  0.1218 -0.1511
14499SOL    HW144938   6.494   1.874  11.864  0.5861 -1.2994 -1.0268
14499SOL    HW244939   6.357   1.834  11.813 -0.5285  0.8621  0.1115
14500SOL     OW44940   3.851   2.014  11.485 -0.0438  0.2274  0.1505
14500SOL    HW144941   3.880   1.962  11.410  1.2978  1.0731  0.0353
14500SOL    HW244942   3.759   1.993  11.495  0.5056 -2.4560  0.3528
14501SOL     OW44943   2.781   3.110  12.320 -0.2348 -0.3530 -0.1570
14501SOL    HW144944   2.717   3.066  12.376  1.4631 -1.1384  1.2529
14501SOL    HW244945   2.832   3.165  12.379 -0.4613  1.3705 -1.4670
14502SOL     OW44946   3.520   3.514  11.245  0.0991 -0.1628 -0.1463
14502SOL    HW144947   3.479   3.497  11.159  1.6252 -1.4711 -0.6671
14502SOL    HW244948   3.501   3.606  11.263  0.1701  0.2964 -2.1568
14503SOL     OW44949   5.038   3.745   0.068 -0.4926  0.2223 -0.2898
14503SOL    HW144950   5.092   3.685   0.016  1.3654  1.0408  0.6142
14503SOL    HW244951   4.949   3.732   0.034 -0.1909 -2.9552 -0.2160
14504SOL     OW44952   4.956   3.128  11.606  0.3201 -0.2271  0.3020
14504SOL    HW144953   4.924   3.216  11.590  0.2579 -0.3715 -0.4195
14504SOL    HW244954   5.030   3.140  11.665 -1.1601  0.0838  2.1799
14505SOL     OW44955   5.426   2.150  11.815 -0.2421  0.7302 -0.3362
14505SOL    HW144956   5.353   2.169  11.757  0.4706  2.4332 -0.7522
14505SOL    HW244957   5.459   2.237  11.840  1.3899  0.0094  0.1319
14506SOL     OW44958   5.651   2.847  11.674 -0.4028  0.4183 -0.3177
14506SOL    HW144959   5.696   2.924  11.708  1.8503  0.6932 -3.4539
14506SOL    HW244960   5.696   2.773  11.713  0.5676  0.7226 -0.8365
14507SOL     OW44961   4.799   3.284  11.958  0.3919  0.0585  0.7496
14507SOL    HW144962   4.806   3.378  11.969 -2.0896  0.2941  1.0718
14507SOL    HW244963   4.770   3.272  11.868  1.3514 -0.4698  0.4936
14508SOL     OW44964   6.233   2.266  10.424 -0.1961  0.3594  0.0190
14508SOL    HW144965   6.222   2.351  10.382  1.5089  1.7425  2.1454
14508SOL    HW244966   6.157   2.257  10.481  0.9547  1.8586  1.8973
14509SOL     OW44967   3.064   3.788  12.157  0.0132  0.4649 -0.9462
14509SOL    HW144968   2.989   3.732  12.139  0.5717 -0.9462  0.7952
14509SOL    HW244969   3.139   3.740  12.123  0.3552  0.7976 -0.6697
14510SOL     OW44970   5.709   1.081  11.744  0.2837  0.0274  0.4992
14510SOL    HW144971   5.658   1.035  11.677  1.8915 -0.1408 -0.6883
14510SOL    HW244972   5.644   1.116  11.805 -1.2290 -0.2059 -0.9104
14511SOL     OW44973   5.117   4.143   1.188 -0.0552  0.2342 -0.4989
14511SOL    HW144974   5.122   4.049   1.173  2.5790  0.2303 -0.0658
14511SOL    HW244975   5.096   4.151   1.281  0.7201  0.0583 -0.3077
14512SOL     OW44976   5.696   5.300   0.244  0.1058  0.2458 -0.0213
14512SOL    HW144977   5.763   5.293   0.311  0.6442  1.3419 -0.4216
14512SOL    HW244978   5.652   5.383   0.262  0.3838  0.6467 -1.1153
14513SOL     OW44979   3.355   1.851   0.227 -0.3985 -0.0177  0.6204
14513SOL    HW144980   3.317   1.864   0.141  3.3361 -1.1677 -1.4287
14513SOL    HW244981   3.284   1.817   0.281 -2.7095  0.1429 -2.1327
14514SOL     OW44982   2.481   3.213  10.562 -0.3931  0.1565  0.5129
14514SOL    HW144983   2.527   3.206  10.478 -1.5546 -1.1248 -0.0576
14514SOL    HW244984   2.526   3.149  10.618 -0.5311 -0.0113  0.4296
14515SOL     OW44985   5.594   2.055  11.274 -0.1977 -0.0664 -0.2125
14515SOL    HW144986   5.616   2.067  11.182  2.0719 -0.6438  0.1904
14515SOL    HW244987   5.668   2.093  11.322 -1.1349 -0.1278  1.3739
14516SOL     OW44988   5.936   2.835  11.320  0.2564 -0.2114  0.6642
14516SOL    HW144989   5.891   2.840  11.404 -1.1480  0.1839 -0.0658
14516SOL    HW244990   5.865   2.841  11.255  1.3394 -0.0608 -0.5451
14517SOL     OW44991   5.546   1.054   0.034 -0.2662 -0.3369  0.3008
14517SOL    HW144992   5.454   1.033   0.020 -0.1554 -0.8297  0.3146
14517SOL    HW244993   5.593   1.001  -0.030  0.0617 -0.6938  0.8293
14518SOL     OW44994   6.777   2.245  10.826  0.6793  0.1214  0.0209
14518SOL    HW144995   6.821   2.273  10.746 -1.4247 -1.4683 -1.8277
14518SOL    HW244996   6.773   2.323  10.880  1.5491  1.4297 -1.7230
14519SOL     OW44997   4.031   1.519  11.968  0.4669  0.2412  0.5130
14519SOL    HW144998   3.974   1.443  11.966  0.2018  0.4451 -0.8727
14519SOL    HW244999   3.980   1.589  11.926  1.6661  0.4527 -0.6831
14520SOL     OW45000   5.981   2.677   0.175  0.3578  0.3073 -0.0836
14520SOL    HW145001   5.932   2.641   0.101  1.0112  0.5168 -0.6269
14520SOL    HW245002   6.056   2.721   0.135  0.6348  0.5618  0.6969
14521SOL     OW45003   7.009   3.379  12.189  0.1809  0.0733  0.4582
14521SOL    HW145004   7.002   3.317  12.117 -1.4085 -0.0856  0.7140
14521SOL    HW245005   6.935   3.438  12.178  0.0964  0.2514  1.7792
14522SOL     OW45006   2.980   2.945   0.230 -0.1306 -0.3550  0.3552
14522SOL    HW145007   2.917   3.007   0.265  0.7082  0.9413 -0.3583
14522SOL    HW245008   3.061   2.996   0.220  0.1501 -1.1381 -1.7163
14523SOL     OW45009   5.670   3.742  11.793  0.6352 -0.1803  0.5617
14523SOL    HW145010   5.667   3.837  11.806  0.1764 -0.5711  4.1864
14523SOL    HW245011   5.759   3.717  11.817  0.7252 -0.7124 -0.2754
14524SOL     OW45012   4.380   1.701  12.356  0.1552  0.1477  0.5196
14524SOL    HW145013   4.319   1.628  12.343 -1.8128  1.8242 -0.3331
14524SOL    HW245014   4.333   1.760  12.416  2.2454  0.1499  2.2446
14525SOL     OW45015   3.087   2.040  12.258 -0.3888  0.3538 -0.0965
14525SOL    HW145016   3.129   1.959  12.285  1.0245  1.0717 -0.0821
14525SOL    HW245017   2.995   2.016  12.245  0.4046 -1.8239 -2.4500
14526SOL     OW45018   4.751   2.040  12.193  0.3391 -0.1114  0.0046
14526SOL    HW145019   4.666   1.998  12.203  0.5796 -0.4646  0.5909
14526SOL    HW245020   4.806   1.974  12.151  0.3894  0.0384 -0.1679
14527SOL     OW45021   6.237   0.358  10.839  0.1292  0.1348  0.9370
14527SOL    HW145022   6.324   0.397  10.833 -0.1057  0.4201 -1.7549
14527SOL    HW245023   6.250   0.280  10.892  1.9462  0.3843  0.9330
14528SOL     OW45024   5.176   2.048  12.415 -0.0955 -0.0566  0.4846
14528SOL    HW145025   5.183   2.058  12.320 -1.5662  2.6791  0.5523
14528SOL    HW245026   5.244   2.107  12.450 -0.2653 -0.2307  1.1192
14529SOL     OW45027   4.983   1.085  12.453 -0.0646  0.1145  0.4856
14529SOL    HW145028   4.964   1.039  12.535  0.1375  0.0008  0.4682
14529SOL    HW245029   4.902   1.132  12.433 -0.7834 -1.3951 -0.2730
14530SOL     OW45030   5.900   0.667  10.043  0.3308 -0.2586 -0.0854
14530SOL    HW145031   5.813   0.674  10.084 -0.4504  1.6240 -1.8627
14530SOL    HW245032   5.955   0.728  10.092 -0.1952  0.8276 -0.7989
14531SOL     OW45033   4.398   3.727  11.928  0.6650 -0.0854 -0.3291
14531SOL    HW145034   4.410   3.669  11.853  0.3323  0.5448 -0.8776
14531SOL    HW245035   4.443   3.808  11.903  0.9659 -0.0381  0.3511
14532SOL     OW45036   4.498   3.202   0.637 -0.1307  0.4649  0.5552
14532SOL    HW145037   4.518   3.208   0.731  0.1096  0.5405  0.4996
14532SOL    HW245038   4.413   3.245   0.628  0.4168  1.5730  0.5473
14533SOL     OW45039   3.030   4.151  10.509 -0.3298 -0.1595  0.3014
14533SOL    HW145040   3.096   4.132  10.442 -0.0123  0.8820  0.3019
14533SOL    HW245041   2.948   4.159  10.460 -0.0236  1.0497 -0.0468
14534SOL     OW45042   4.785   0.711  11.988  0.0314  0.2954  0.4234
14534SOL    HW145043   4.815   0.750  11.905  1.9775  0.5944  1.2184
14534SOL    HW245044   4.699   0.750  12.003  0.5068  1.7589 -0.4626
14535SOL     OW45045   5.130   1.938  11.932  0.1669 -0.0034 -0.2081
14535SOL    HW145046   5.224   1.925  11.930  0.0479 -1.9573  2.1067
14535SOL    HW245047   5.110   1.961  12.023 -1.7912 -2.3535  0.0772
14536SOL     OW45048   4.304   4.139  10.761 -0.2074  0.6879  0.0789
14536SOL    HW145049   4.293   4.233  10.746  1.4061  0.8923 -0.0036
14536SOL    HW245050   4.316   4.131  10.856  2.4249  0.9530 -0.1475
14537SOL     OW45051   4.972   3.054   0.327 -0.7219  0.0585  0.0341
14537SOL    HW145052   4.921   2.980   0.295  0.1704 -0.6529  0.2050
14537SOL    HW245053   4.908   3.113   0.366 -1.6765  0.2814 -1.7730
14538SOL     OW45054   5.744   2.258  11.415  0.1482 -0.0330 -0.4101
14538SOL    HW145055   5.804   2.323  11.380  0.7365  0.4267  1.3161
14538SOL    HW245056   5.657   2.294  11.399  0.4208  0.4851 -0.7582
14539SOL     OW45057   2.585   2.026   0.336 -0.1962 -0.8119 -0.3789
14539SOL    HW145058   2.617   2.112   0.308 -1.6420  0.4240  1.5211
14539SOL    HW245059   2.505   2.013   0.285  0.4124 -1.3951 -1.2013
14540SOL     OW45060   5.890   0.991  11.406  0.1692  0.1384  0.3486
14540SOL    HW145061   5.945   1.044  11.347  1.2429  1.4716  2.4284
14540SOL    HW245062   5.895   1.036  11.490 -2.9965 -0.5170  1.0190
14541SOL     OW45063   3.544   3.125   1.213  0.0172  0.6464  0.2892
14541SOL    HW145064   3.516   3.215   1.200  0.5192  0.9279  1.0887
14541SOL    HW245065   3.552   3.089   1.125 -0.5569  1.2648 -0.0203
14542SOL     OW45066   5.493   1.959  12.334 -0.4590 -0.1244  0.1432
14542SOL    HW145067   5.452   1.890  12.282  0.7977 -2.1865  1.7359
14542SOL    HW245068   5.442   1.964  12.414 -0.6801  1.0068 -0.0459
14543SOL     OW45069   5.134   2.940  12.473  1.3953 -0.1918 -0.0914
14543SOL    HW145070   5.046   2.958  12.439  1.2552 -0.2075  0.2637
14543SOL    HW245071   5.151   2.849  12.448  1.4369 -0.0899 -0.4344
14544SOL     OW45072   5.886   1.907  12.293 -0.0751  0.1835  0.5207
14544SOL    HW145073   5.835   1.827  12.309 -0.9615  0.1636 -1.9037
14544SOL    HW245074   5.947   1.883  12.224 -0.9763  1.7840 -0.9198
14545SOL     OW45075   4.334   1.962   2.471  0.2030 -0.2579  0.4260
14545SOL    HW145076   4.391   1.999   2.404 -0.7208  0.9859  0.2811
14545SOL    HW245077   4.245   1.984   2.441 -0.3444 -1.7215  0.8777
14546SOL     OW45078   5.760   3.100  11.800  0.1319  0.2236  0.0681
14546SOL    HW145079   5.811   3.107  11.720  0.4556 -0.6474  0.1905
14546SOL    HW245080   5.825   3.097  11.870 -0.0203 -1.4116  0.1930
14547SOL     OW45081   7.218   2.150  11.981  0.5176 -0.3804  0.1638
14547SOL    HW145082   7.195   2.059  11.964  1.3563 -0.6697  0.4996
14547SOL    HW245083   7.159   2.178  12.050  0.8882 -0.9827  0.7432
14548SOL     OW45084   3.673   3.017  11.557  0.1228 -0.0832  0.2619
14548SOL    HW145085   3.637   3.094  11.513 -0.9546 -1.2041 -0.9402
14548SOL    HW245086   3.602   2.952  11.552  1.1713 -1.3036  0.7755
14549SOL     OW45087   4.510   1.011   0.248 -0.2866 -0.0549 -0.3296
14549SOL    HW145088   4.460   1.006   0.330  0.7426 -2.0646  0.2487
14549SOL    HW245089   4.454   0.970   0.183 -0.2217 -0.4773 -0.1242
14550SOL     OW45090   2.409   2.808  11.171 -0.1561  0.4643 -0.3887
14550SOL    HW145091   2.425   2.828  11.079 -0.8355  1.8107 -0.2353
14550SOL    HW245092   2.428   2.890  11.217 -0.3323 -0.0386  0.6034
14551SOL     OW45093   4.433   3.710  11.189 -0.2379  0.0859 -0.5956
14551SOL    HW145094   4.506   3.714  11.128  0.9793 -0.9280  0.7063
14551SOL    HW245095   4.473   3.686  11.273 -2.0848 -0.7171  0.1249
14552SOL     OW45096   2.351   3.171  12.437 -0.2239 -0.0603  0.2801
14552SOL    HW145097   2.394   3.191  12.354 -0.7637 -1.4824 -0.3602
14552SOL    HW245098   2.283   3.238  12.446 -0.8715 -0.5243 -0.9704
14553SOL     OW45099   4.889   2.357  10.985  0.2781 -0.3412 -0.1482
14553SOL    HW145100   4.826   2.291  10.956  0.0673 -0.5582  0.7712
14553SOL    HW245101   4.975   2.315  10.972  0.2191 -0.2078 -0.9987
14554SOL     OW45102   6.067   2.794  11.680  0.0464 -0.0618  0.1085
14554SOL    HW145103   6.004   2.742  11.729 -0.3265  0.1822 -0.1074
14554SOL    HW245104   6.066   2.880  11.723 -0.2997  0.1610 -0.3334
14555SOL     OW45105   5.503   1.091  10.711  0.3295  0.7160  0.0042
14555SOL    HW145106   5.449   1.125  10.639  1.5268  0.1068 -1.2197
14555SOL    HW245107   5.557   1.166  10.737  1.5903  0.3508 -1.3916
14556SOL     OW45108   3.455   1.447  10.239  0.5523  0.0295  0.2627
14556SOL    HW145109   3.389   1.392  10.196  1.2437 -0.7366  0.1529
14556SOL    HW245110   3.497   1.494  10.167  0.7843 -0.2238  0.2299
14557SOL     OW45111   4.742   1.049  11.476 -1.0852 -0.2922 -0.3321
14557SOL    HW145112   4.678   1.033  11.407 -1.3882 -0.8911  0.0837
14557SOL    HW245113   4.817   1.088  11.431 -2.2106  1.6225 -0.6606
14558SOL     OW45114   3.460   2.002  12.195 -0.4867  0.5863  0.0188
14558SOL    HW145115   3.533   1.960  12.242 -0.4127 -1.0029 -1.4194
14558SOL    HW245116   3.439   2.079  12.248  0.4901 -0.3550  1.8839
14559SOL     OW45117   5.136   2.679  12.373 -0.1434 -0.2310  0.1854
14559SOL    HW145118   5.171   2.591  12.363  1.1057  0.3752 -1.1878
14559SOL    HW245119   5.094   2.698  12.289 -0.3115  0.5218  0.4296
14560SOL     OW45120   4.829   3.867  11.700  0.3854 -0.2980 -0.3844
14560SOL    HW145121   4.816   3.864  11.794 -0.0111 -1.5967 -0.4657
14560SOL    HW245122   4.747   3.836  11.663  1.0169 -1.1857 -1.1028
14561SOL     OW45123   2.752   3.434   0.168 -0.1873  0.3521 -0.7285
14561SOL    HW145124   2.794   3.493   0.106 -0.6804  0.7816 -0.6609
14561SOL    HW245125   2.660   3.432   0.140 -0.4613  0.7433  0.1335
14562SOL     OW45126   5.398   3.419  12.137  0.3474  0.4662 -0.2594
14562SOL    HW145127   5.347   3.362  12.196  1.3666  1.1063  1.3102
14562SOL    HW245128   5.486   3.382  12.139  0.5487  0.9131 -0.8437
14563SOL     OW45129   5.000   1.854  11.050 -0.4565 -0.3185 -0.3025
14563SOL    HW145130   4.967   1.915  10.985 -0.0458 -1.0415 -1.2182
14563SOL    HW245131   4.932   1.785  11.054 -1.3852  0.6342  1.4224
14564SOL     OW45132   3.679   2.864  12.183 -0.4654 -0.2829 -0.4299
14564SOL    HW145133   3.765   2.892  12.151 -1.4121  0.6657 -2.3304
14564SOL    HW245134   3.649   2.936  12.239 -0.4709 -0.1169 -0.6449
14565SOL     OW45135   4.367   2.518  12.368 -0.1379  0.8314 -0.1608
14565SOL    HW145136   4.369   2.423  12.373 -1.5001  0.8307  1.4818
14565SOL    HW245137   4.451   2.543  12.331  0.6801 -0.9533  0.4255
14566SOL     OW45138   4.227   1.075  11.549  0.0414 -0.5662  0.3152
14566SOL    HW145139   4.276   1.009  11.599  2.5025  0.0368 -1.1253
14566SOL    HW245140   4.214   1.035  11.463  2.5814  1.0819 -0.9745
14567SOL     OW45141   4.281   3.353   0.480 -0.3593  0.2549 -0.0085
14567SOL    HW145142   4.329   3.432   0.455  0.8682 -0.1747  0.8769
14567SOL    HW245143   4.226   3.334   0.404  0.4064  1.1313 -0.8206
14568SOL     OW45144   4.539   3.596   0.133  0.5961 -0.9108  0.2505
14568SOL    HW145145   4.497   3.650   0.201  0.0949 -1.8196  0.6759
14568SOL    HW245146   4.561   3.658   0.064 -2.0412 -0.4720 -0.2815
14569SOL     OW45147   4.033   2.287  12.334  0.0535 -0.1082  0.1580
14569SOL    HW145148   4.127   2.278  12.347  0.0193 -1.2759 -0.2779
14569SOL    HW245149   4.024   2.347  12.260  0.4300  0.5911  0.6754
14570SOL     OW45150   5.861   3.577  10.175 -0.1051 -0.0162 -0.4598
14570SOL    HW145151   5.887   3.591  10.266  0.5544 -1.9165 -0.2969
14570SOL    HW245152   5.851   3.664  10.138  0.2303  0.7848  1.2654
14571SOL     OW45153   6.163   2.753   2.243  0.0805  0.9346 -0.3192
14571SOL    HW145154   6.082   2.702   2.244  0.9336 -0.4627 -0.6438
14571SOL    HW245155   6.221   2.709   2.305  0.3484  2.3876  0.5142
14572SOL     OW45156   5.953   3.640  12.138  0.1414 -0.2130 -0.0301
14572SOL    HW145157   5.933   3.559  12.184  0.6586  0.0393  0.6552
14572SOL    HW245158   5.877   3.696  12.154 -0.8354 -1.0246 -1.6393
14573SOL     OW45159   3.039   1.322   0.515  0.7140 -0.2941 -0.7079
14573SOL    HW145160   2.973   1.358   0.575  0.7167  1.6056 -1.7708
14573SOL    HW245161   3.043   1.229   0.537 -0.3011  0.0752  1.2656
14574SOL     OW45162   4.855   0.737  12.257 -0.1381  0.4227  0.1488
14574SOL    HW145163   4.784   0.704  12.312 -0.3950  1.7535  0.6658
14574SOL    HW245164   4.820   0.738  12.168 -0.5652  0.5014  0.3183
14575SOL     OW45165   5.626   2.835  11.361  0.1259  0.5848  0.0328
14575SOL    HW145166   5.592   2.747  11.348 -0.2379  0.9250 -1.4778
14575SOL    HW245167   5.619   2.850  11.455  1.0954 -1.3476  0.4540
14576SOL     OW45168   5.041   1.368  12.158 -0.1988  0.6960 -0.5779
14576SOL    HW145169   5.007   1.281  12.137  0.8833  0.4707 -1.4402
14576SOL    HW245170   4.974   1.406  12.215 -1.4656 -0.0719 -1.5002
14577SOL     OW45171   3.517   1.676  10.429 -0.3071 -0.0371 -0.7227
14577SOL    HW145172   3.460   1.620  10.483 -0.1758 -0.1632 -0.7154
14577SOL    HW245173   3.520   1.632  10.344 -1.7211  0.9354 -1.3162
14578SOL     OW45174   5.016   3.395   0.507  0.2327  0.2611  0.0257
14578SOL    HW145175   5.101   3.436   0.526  0.5021 -0.0083 -0.5568
14578SOL    HW245176   4.994   3.426   0.419  0.1703 -0.3885 -0.1939
14579SOL     OW45177   3.512   1.101   0.660  0.4847  0.0231  0.2662
14579SOL    HW145178   3.508   1.156   0.581  1.0231  0.1987  0.3538
14579SOL    HW245179   3.499   1.162   0.732  3.6525  0.5484  0.5341
14580SOL     OW45180   4.513   1.921  12.166 -0.0470  0.0067 -0.0217
14580SOL    HW145181   4.507   1.920  12.070 -1.2912 -2.7447 -0.0088
14580SOL    HW245182   4.459   1.848  12.194  1.3955 -0.1267  2.7554
14581SOL     OW45183   3.852   3.792  11.205  0.4314  0.1001 -0.1280
14581SOL    HW145184   3.942   3.818  11.185  0.1746  0.6533 -0.5976
14581SOL    HW245185   3.808   3.790  11.120  0.1936 -0.9454  0.0024
14582SOL     OW45186   5.677   4.871  11.347 -0.1625 -0.0685  0.6441
14582SOL    HW145187   5.689   4.966  11.353 -1.1206  0.2750 -1.7218
14582SOL    HW245188   5.585   4.861  11.321 -0.5354 -1.7479  2.4452
14583SOL     OW45189   5.261   3.202  12.315 -0.5396  0.4268  0.0040
14583SOL    HW145190   5.227   3.133  12.372 -1.0811  0.5704 -0.1352
14583SOL    HW245191   5.202   3.202  12.239  1.2950 -1.0815 -1.5401
14584SOL     OW45192   6.178   3.131  12.177  0.4748  1.0790  0.3039
14584SOL    HW145193   6.219   3.074  12.242 -0.8062 -0.4311 -0.1488
14584SOL    HW245194   6.241   3.202  12.164  2.1999 -0.2844  0.8048
14585SOL     OW45195   6.556   2.455  12.286  0.5958 -0.4874  0.0109
14585SOL    HW145196   6.521   2.395  12.221  1.9107 -2.2992  0.8656
14585SOL    HW245197   6.542   2.410  12.370  1.7700  0.3133  0.6656
14586SOL     OW45198   5.749   2.164  11.679  0.0326  0.1475  0.2225
14586SOL    HW145199   5.791   2.247  11.702 -1.2934  0.6535  0.9227
14586SOL    HW245200   5.741   2.167  11.583  1.0572  0.2844  0.1328
14587SOL     OW45201   5.346   4.656  11.785 -0.1529  0.1259 -0.2679
14587SOL    HW145202   5.342   4.747  11.817  0.0405  0.4054 -1.0144
14587SOL    HW245203   5.268   4.647  11.732 -1.8121 -1.1155  2.1878
14588SOL     OW45204   5.133   2.329   1.281 -0.3249 -0.4865  0.1749
14588SOL    HW145205   5.098   2.241   1.264  1.8571 -1.4272  0.1789
14588SOL    HW245206   5.068   2.370   1.338 -1.0623 -2.3765  0.7731
14589SOL     OW45207   5.972   4.491  11.404  0.1640 -0.1711 -0.3080
14589SOL    HW145208   5.976   4.462  11.313 -1.5969  0.7402 -0.7259
14589SOL    HW245209   5.879   4.508  11.420 -0.0240 -2.9768  2.5610
14590SOL     OW45210   4.705   3.609  11.763 -0.0570 -0.2520  0.0958
14590SOL    HW145211   4.745   3.566  11.839 -2.4051 -0.5038  1.2667
14590SOL    HW245212   4.722   3.549  11.690  0.9815 -0.7081  0.6950
14591SOL     OW45213   4.413   1.258  11.830  0.3546 -0.2523  0.0058
14591SOL    HW145214   4.386   1.290  11.744  1.0076 -0.1023 -0.1539
14591SOL    HW245215   4.332   1.236  11.875  0.0286 -1.1305 -0.9563
14592SOL     OW45216   4.041   3.881  10.468 -0.2000 -0.1211  0.1799
14592SOL    HW145217   4.052   3.970  10.502  0.8898  0.4079 -1.4593
14592SOL    HW245218   3.946   3.870  10.460 -0.4289  0.2622  1.9270
14593SOL     OW45219   3.534   3.511  11.576  0.0079 -0.3520 -0.6609
14593SOL    HW145220   3.451   3.514  11.528 -0.7527  0.4154  0.6675
14593SOL    HW245221   3.597   3.480  11.511 -1.6442 -2.8763 -1.2271
14594SOL     OW45222   5.584   3.584   0.848 -0.1843  0.7624  0.3529
14594SOL    HW145223   5.598   3.643   0.922 -0.2986  0.9707  0.2126
14594SOL    HW245224   5.587   3.642   0.771 -2.6334  1.0162  0.3505
14595SOL     OW45225   3.837   2.315   0.029 -0.5651 -0.4486  0.1709
14595SOL    HW145226   3.880   2.265   0.098 -0.3800  0.6660  0.8940
14595SOL    HW245227   3.901   2.320  -0.042 -0.1387 -0.2083  0.5746
14596SOL     OW45228   7.660   2.851  10.672  0.3691  0.0903  0.3204
14596SOL    HW145229   7.730   2.909  10.701  0.2087  0.1222  0.6518
14596SOL    HW245230   7.589   2.867  10.734  0.3100 -0.4405  0.3938
14597SOL     OW45231   3.934   3.380  12.486  0.5616  0.3459  0.3402
14597SOL    HW145232   4.021   3.352  12.457  1.2925  0.5792  2.1864
14597SOL    HW245233   3.881   3.378  12.406  1.3005 -3.2660 -0.2286
14598SOL     OW45234   4.766   3.824  11.969  0.0701 -0.0434  0.1347
14598SOL    HW145235   4.796   3.778  12.047  2.2591  0.0416 -0.5916
14598SOL    HW245236   4.742   3.755  11.907 -0.2960 -0.1270  0.3675
14599SOL     OW45237   4.203   3.291  10.807  0.3039  0.7127  0.3000
14599SOL    HW145238   4.242   3.260  10.725  0.7390  0.8272  0.4598
14599SOL    HW245239   4.221   3.221  10.870  1.0047  1.1247  0.5820
14600SOL     OW45240   3.645   2.303   0.783 -0.1276 -0.0530  0.1038
14600SOL    HW145241   3.624   2.359   0.708 -1.1848  0.6181  0.8859
14600SOL    HW245242   3.659   2.363   0.855  2.1748 -0.6012  0.2219
14601SOL     OW45243   5.271   2.233  11.602 -0.4779  0.3011  0.4100
14601SOL    HW145244   5.305   2.323  11.598  0.7665 -0.1892 -1.2103
14601SOL    HW245245   5.211   2.227  11.528 -0.7291 -0.1542  0.6458
14602SOL     OW45246   5.475   2.392  11.931 -0.0693  0.2944 -0.1559
14602SOL    HW145247   5.518   2.341  12.000  0.3992  0.8225 -0.0460
14602SOL    HW245248   5.502   2.482  11.948 -0.3685  0.4974 -0.7272
14603SOL     OW45249   3.592   4.548  10.267 -0.2265 -0.1412 -0.0992
14603SOL    HW145250   3.600   4.494  10.345  1.0653 -1.6618 -1.2269
14603SOL    HW245251   3.500   4.540  10.241 -0.1746 -1.3669  0.0650
14604SOL     OW45252   7.690   1.350   0.735  0.0852 -0.6681 -0.2626
14604SOL    HW145253   7.602   1.385   0.724  0.5037  0.7093  0.5293
14604SOL    HW245254   7.678   1.266   0.779 -0.7981 -0.1224  0.5727
14605SOL     OW45255   3.734   1.061   0.035  0.2637 -0.1202 -0.4453
14605SOL    HW145256   3.750   1.018  -0.050  0.6009 -1.0775  0.0812
14605SOL    HW245257   3.743   0.990   0.099  0.1371  0.6185  0.4032
14606SOL     OW45258   6.929   1.928  11.105  0.4495  0.0041 -0.3717
14606SOL    HW145259   6.964   1.891  11.186  1.0250  0.7474 -0.2567
14606SOL    HW245260   6.873   2.000  11.133  1.0271  0.5698 -0.6373
14607SOL     OW45261   5.013   3.400  11.340 -0.0846 -0.3519 -0.2135
14607SOL    HW145262   4.944   3.399  11.406 -0.3091 -0.1592 -0.4426
14607SOL    HW245263   5.094   3.390  11.389 -0.2109  0.2845  0.1374
14608SOL     OW45264   5.327   1.356  12.278 -0.5994 -0.4384  0.1508
14608SOL    HW145265   5.359   1.431  12.328  0.0601 -0.8390  0.3380
14608SOL    HW245266   5.293   1.394  12.197 -1.4787  0.1934  0.7877
14609SOL     OW45267   4.911   1.304  11.793 -0.4219 -0.5186  0.3980
14609SOL    HW145268   4.839   1.296  11.730  1.3052 -1.8797 -1.5114
14609SOL    HW245269   4.937   1.396  11.788 -0.2627 -0.6138 -0.9870
14610SOL     OW45270   4.627   2.938  11.845 -0.5754  0.4332 -0.1984
14610SOL    HW145271   4.654   3.030  11.837 -1.2559  0.8233  1.4970
14610SOL    HW245272   4.535   2.938  11.818 -0.5231  0.2168 -0.3734
14611SOL     OW45273   5.841   0.490  11.600  0.3779 -0.1238 -0.0645
14611SOL    HW145274   5.896   0.412  11.611  0.9143  0.4212  1.2423
14611SOL    HW245275   5.879   0.535  11.525  2.4957  0.8272  1.4862
14612SOL     OW45276   6.237   2.413  12.239  0.9761 -0.0360 -0.0783
14612SOL    HW145277   6.248   2.505  12.260 -3.1730  0.2967  1.6959
14612SOL    HW245278   6.233   2.369  12.324  0.7401 -1.5080 -0.8045
14613SOL     OW45279   4.772   1.859  11.282  0.5716 -0.2144 -0.1548
14613SOL    HW145280   4.727   1.943  11.273 -0.7882 -1.0579 -1.8672
14613SOL    HW245281   4.746   1.827  11.368  1.1125  1.1083  0.5221
14614SOL     OW45282   4.207   2.485   0.187 -0.2483 -0.2164 -0.4620
14614SOL    HW145283   4.296   2.482   0.222 -0.9805 -2.4850  1.5129
14614SOL    HW245284   4.192   2.396   0.153 -1.9027 -0.0137 -0.3400
14615SOL     OW45285   5.163   3.488  10.893  0.4217  0.1857 -0.3082
14615SOL    HW145286   5.162   3.394  10.874  1.6726  0.5449 -2.5008
14615SOL    HW245287   5.205   3.494  10.979 -0.1895 -1.2692  0.1301
14616SOL     OW45288   3.467   2.551  11.189  0.1556  0.4620  0.2712
14616SOL    HW145289   3.383   2.596  11.202 -0.0420  0.7548 -1.8202
14616SOL    HW245290   3.531   2.621  11.177 -0.0898  0.3081 -2.6112
14617SOL     OW45291   4.241   3.086   0.903  0.2396  0.0629  0.3949
14617SOL    HW145292   4.332   3.054   0.900  0.2191  0.0215 -2.1181
14617SOL    HW245293   4.203   3.043   0.979  2.0215 -0.8113  0.8492
14618SOL     OW45294   4.288   4.019   0.406  0.4088  0.6016  0.0676
14618SOL    HW145295   4.209   4.042   0.455 -0.0344 -0.7983  0.0341
14618SOL    HW245296   4.305   4.097   0.352 -2.2495  0.1996 -1.5918
14619SOL     OW45297   2.625   5.000  11.508  0.2591 -0.1856 -0.3559
14619SOL    HW145298   2.563   4.954  11.564  0.8988 -0.6703 -0.0349
14619SOL    HW245299   2.614   4.961  11.422  1.6421 -1.8250  0.1605
14620SOL     OW45300   5.330   6.556  12.347 -0.0032  0.3530 -0.1633
14620SOL    HW145301   5.321   6.650  12.332  0.4628  0.3570 -0.4751
14620SOL    HW245302   5.253   6.517  12.305  1.5248  0.3261 -3.2264
14621SOL     OW45303   4.704   4.056  11.064  0.1246 -0.0690 -0.4611
14621SOL    HW145304   4.774   4.032  11.125 -0.1792  0.9053  0.2982
14621SOL    HW245305   4.695   4.151  11.073 -2.4632 -0.3401  0.7755
14622SOL     OW45306   5.535   5.155  12.153  0.0010 -0.1419  0.2615
14622SOL    HW145307   5.461   5.141  12.094 -0.4869  1.1813  0.5367
14622SOL    HW245308   5.558   5.067  12.183  0.0513 -0.8179 -1.6207
14623SOL     OW45309   4.222   4.510   1.748  0.2086  0.0205  0.0013
14623SOL    HW145310   4.186   4.440   1.803 -1.3273  0.0915 -0.8465
14623SOL    HW245311   4.170   4.507   1.668  1.5354  0.7622 -0.9296
14624SOL     OW45312   4.465   4.086   3.097 -0.0686 -0.2038  0.2066
14624SOL    HW145313   4.554   4.102   3.129 -0.7595  0.3211  1.9838
14624SOL    HW245314   4.428   4.173   3.084 -0.0511 -0.4174 -1.4040
14625SOL     OW45315   3.848   5.624   2.250  0.1455 -0.3773  0.4562
14625SOL    HW145316   3.940   5.616   2.225 -0.3699 -0.6699 -1.5117
14625SOL    HW245317   3.800   5.581   2.179 -1.5005 -0.6223  1.6486
14626SOL     OW45318   4.495   4.885   2.935 -0.3936 -0.1992 -0.0542
14626SOL    HW145319   4.401   4.866   2.939 -0.1347 -1.5469  0.0473
14626SOL    HW245320   4.533   4.836   3.007  0.6119 -1.2131 -1.2132
14627SOL     OW45321   5.152   4.472  11.648  0.1768  0.1459  0.1494
14627SOL    HW145322   5.063   4.444  11.669 -0.3978  1.8506  0.1348
14627SOL    HW245323   5.182   4.410  11.581 -1.0504 -0.3300  0.0227
14628SOL     OW45324   5.518   5.615   1.331  0.4458 -0.4141 -0.1435
14628SOL    HW145325   5.530   5.527   1.296 -0.4122 -1.2295  1.4574
14628SOL    HW245326   5.423   5.624   1.340  0.5644  0.3778  0.4012
14629SOL     OW45327   2.954   4.782   0.052  0.1730  0.2875 -0.1600
14629SOL    HW145328   3.017   4.853   0.058  0.7822 -0.3837  2.5855
14629SOL    HW245329   2.872   4.819   0.086 -0.3597  0.4811 -1.5585
14630SOL     OW45330   2.538   4.818  11.715 -0.7111 -0.6102  0.3538
14630SOL    HW145331   2.578   4.840  11.799  0.6543 -1.5738  0.0034
14630SOL    HW245332   2.484   4.741  11.733 -2.4016  0.6185  0.8025
14631SOL     OW45333   5.232   4.571   0.372  0.0612 -0.2820  0.2788
14631SOL    HW145334   5.305   4.513   0.350  0.5594  0.2182  0.5892
14631SOL    HW245335   5.237   4.581   0.467 -0.6218 -0.5159  0.3432
14632SOL     OW45336   6.875   3.854   1.791  0.3522  0.2946 -0.2693
14632SOL    HW145337   6.955   3.817   1.828  1.3018  0.7132 -1.8266
14632SOL    HW245338   6.806   3.796   1.822  1.4350 -1.0010 -0.1757
14633SOL     OW45339   4.202   6.639   0.576 -0.3980 -0.1928 -0.5476
14633SOL    HW145340   4.286   6.663   0.535 -0.4442 -0.5512 -0.8579
14633SOL    HW245341   4.227   6.598   0.659 -0.1377 -2.0851 -1.4856
14634SOL     OW45342   2.984   3.709   2.252  0.0211  0.0895  0.2801
14634SOL    HW145343   2.985   3.796   2.292  0.0082  1.3885 -2.3218
14634SOL    HW245344   2.893   3.696   2.227  0.2925  0.0969 -0.7822
14635SOL     OW45345   4.625   5.930   1.715 -0.1367 -0.1115  0.2487
14635SOL    HW145346   4.648   5.841   1.742 -0.1568 -0.3119 -0.3697
14635SOL    HW245347   4.708   5.971   1.693 -0.2112 -0.3135 -0.4406
14636SOL     OW45348   3.874   4.541   0.857 -0.1041  0.0384 -0.8433
14636SOL    HW145349   3.962   4.509   0.878  0.6036  0.4873 -2.9538
14636SOL    HW245350   3.832   4.469   0.810 -0.1450  0.5330 -1.5819
14637SOL     OW45351   7.819   3.356   1.527  0.2586  0.5044 -0.1265
14637SOL    HW145352   7.880   3.338   1.455 -0.7457 -1.4977 -0.5667
14637SOL    HW245353   7.757   3.283   1.524  0.2542  0.2502  2.8631
14638SOL     OW45354   2.685   3.325   1.025  0.1629  0.1501 -0.2001
14638SOL    HW145355   2.707   3.274   1.103 -0.1573  1.3561  0.6931
14638SOL    HW245356   2.610   3.279   0.987  0.3197 -0.4477  0.1915
14639SOL     OW45357   5.376   5.023  12.476  0.1272 -0.2714  0.1240
14639SOL    HW145358   5.323   4.962  12.528 -0.0700  0.3802  0.7019
14639SOL    HW245359   5.328   5.106  12.482  0.5154 -0.0051 -0.4628
14640SOL     OW45360   4.103   4.851   0.186  0.3464  0.2023 -0.0272
14640SOL    HW145361   4.190   4.849   0.147  1.2162 -1.3385  1.8250
14640SOL    HW245362   4.086   4.761   0.213 -1.0076  0.8032  1.3160
14641SOL     OW45363   3.293   4.886   1.216  0.6352 -0.4723  0.0218
14641SOL    HW145364   3.233   4.819   1.251  0.7899 -0.4449  0.3468
14641SOL    HW245365   3.299   4.867   1.123  1.3201 -1.4231  0.2454
14642SOL     OW45366   4.443   3.338  11.857  0.5718  0.4031 -0.1320
14642SOL    HW145367   4.448   3.358  11.950 -0.8588 -1.7635  0.4950
14642SOL    HW245368   4.403   3.416  11.818 -0.5969  0.6307  1.4003
14643SOL     OW45369   2.081   5.192   1.296  0.5147 -0.0238 -0.2124
14643SOL    HW145370   2.046   5.279   1.313  0.7591 -0.0533  0.4984
14643SOL    HW245371   2.070   5.179   1.202 -0.5329  0.3215 -0.1471
14644SOL     OW45372   3.005   5.737   2.403  0.3832  0.5605  0.0394
14644SOL    HW145373   3.003   5.805   2.472 -1.1433 -0.8394  1.4566
14644SOL    HW245374   2.969   5.659   2.446 -0.0677 -0.5300 -2.2180
14645SOL     OW45375   3.130   5.125   0.684 -0.4225 -0.4398  0.3059
14645SOL    HW145376   3.213   5.150   0.725  1.5152 -1.0137 -2.8918
14645SOL    HW245377   3.129   5.029   0.686 -2.0722 -0.4465  2.0746
14646SOL     OW45378   6.214   2.833   1.427  0.0435  0.7008  0.1140
14646SOL    HW145379   6.189   2.921   1.456 -1.1412  0.4560 -0.1403
14646SOL    HW245380   6.233   2.786   1.509 -0.3336  0.8921  0.3150
14647SOL     OW45381   4.113   4.218   3.511 -0.0393  0.2039 -0.2568
14647SOL    HW145382   4.186   4.215   3.573 -0.6481 -0.4174  0.4574
14647SOL    HW245383   4.081   4.128   3.508 -0.6112  0.4164 -0.7598
14648SOL     OW45384   6.490   2.905  11.429 -0.6844  0.3439  0.8517
14648SOL    HW145385   6.510   2.997  11.413  0.0723  0.2229  1.0618
14648SOL    HW245386   6.500   2.863  11.343  1.3053  0.0633  1.1652
14649SOL     OW45387   4.268   6.824   0.891  0.2699  0.3406 -0.3098
14649SOL    HW145388   4.301   6.827   0.802  0.5749 -1.0847 -0.2607
14649SOL    HW245389   4.253   6.916   0.914 -0.1225  0.7080 -1.9259
14650SOL     OW45390   4.409   5.451   2.993 -0.2142  0.0649  0.5178
14650SOL    HW145391   4.391   5.360   2.971  0.8777 -0.1192  0.2979
14650SOL    HW245392   4.362   5.467   3.074 -0.3396 -0.7301  0.6061
14651SOL     OW45393   6.215   5.161   1.579  0.2015 -0.0806  0.0383
14651SOL    HW145394   6.256   5.095   1.523 -0.6142 -1.1099  0.6216
14651SOL    HW245395   6.286   5.192   1.635  0.5815 -0.4899 -0.2056
14652SOL     OW45396   5.245   4.269  12.280  0.0101 -0.2922  0.7186
14652SOL    HW145397   5.161   4.241  12.244  0.2531 -1.1064  0.7553
14652SOL    HW245398   5.226   4.351  12.326 -0.7258 -0.3802  0.5764
14653SOL     OW45399   4.072   4.943  12.197  0.1527 -0.0803  0.1194
14653SOL    HW145400   4.076   4.850  12.177 -2.9136 -0.5127  1.1061
14653SOL    HW245401   4.023   4.982  12.125  1.0437  0.7441 -0.0719
14654SOL     OW45402   3.793   3.625  12.373 -0.2657 -0.1011  0.1010
14654SOL    HW145403   3.736   3.682  12.425 -1.4076 -2.3228  1.4128
14654SOL    HW245404   3.735   3.588  12.306 -0.2713 -1.8395  1.0132
14655SOL     OW45405   4.492   4.579  11.257 -0.0670 -0.1909 -0.5471
14655SOL    HW145406   4.467   4.661  11.216  0.5024  0.1590 -0.2046
14655SOL    HW245407   4.570   4.600  11.308 -0.6197 -0.6603  0.5331
14656SOL     OW45408   4.337   3.594   1.772 -0.0370 -0.1970 -0.2000
14656SOL    HW145409   4.337   3.521   1.710 -0.8395  0.3679 -0.8858
14656SOL    HW245410   4.249   3.630   1.767  0.1508  0.4113  0.6281
14657SOL     OW45411   4.738   4.719   1.363 -0.5006 -0.3373  0.2100
14657SOL    HW145412   4.672   4.788   1.354  1.0877  1.4029  1.2075
14657SOL    HW245413   4.707   4.666   1.436 -1.7012 -0.6554 -0.5071
14658SOL     OW45414   5.836   4.615   0.205  0.3625  0.1506 -0.2902
14658SOL    HW145415   5.882   4.565   0.273 -0.9739  1.8619  1.9956
14658SOL    HW245416   5.839   4.705   0.236 -0.5194  0.9698 -2.4348
14659SOL     OW45417   3.652   4.618   2.608 -0.0884 -0.6836 -0.3276
14659SOL    HW145418   3.654   4.532   2.651  1.6042 -0.4057  0.1927
14659SOL    HW245419   3.738   4.627   2.568 -0.8446  0.0511 -1.8818
14660SOL     OW45420   6.724   4.208   2.947 -0.1121 -0.6886  0.1462
14660SOL    HW145421   6.782   4.146   2.991  0.2428  0.3378  1.2023
14660SOL    HW245422   6.670   4.244   3.017 -1.6482 -1.1719 -0.7275
14661SOL     OW45423   2.675   4.094  11.273  0.3294  0.4331 -0.2976
14661SOL    HW145424   2.739   4.165  11.279 -1.7715  2.2934  3.3210
14661SOL    HW245425   2.725   4.015  11.292  2.2551  1.1942 -1.8466
14662SOL     OW45426   3.972   5.850   1.331 -0.2740 -0.1897 -0.1903
14662SOL    HW145427   3.965   5.939   1.365  1.6184 -0.4885  1.1081
14662SOL    HW245428   3.899   5.843   1.269 -1.3321  1.7695  0.7284
14663SOL     OW45429   4.624   2.487   0.876 -0.1389  0.4362  0.2911
14663SOL    HW145430   4.692   2.444   0.825 -0.0862  1.2701 -0.3693
14663SOL    HW245431   4.612   2.431   0.952 -0.4279 -1.0014 -0.7641
14664SOL     OW45432   4.794   6.168   1.640 -0.1598 -0.2951 -0.3430
14664SOL    HW145433   4.844   6.224   1.700 -1.0966  1.1281 -0.8202
14664SOL    HW245434   4.840   6.084   1.640  0.5244  0.0501  1.4506
14665SOL     OW45435   2.481   4.731   1.497 -0.3115  0.0391  0.3879
14665SOL    HW145436   2.417   4.663   1.481  1.1404 -1.7788  1.8193
14665SOL    HW245437   2.456   4.802   1.438 -2.6873 -1.1680 -0.1844
14666SOL     OW45438   5.729   1.941  11.824  0.0776  0.2348 -0.5479
14666SOL    HW145439   5.687   2.010  11.774 -2.2498  0.9834  2.1861
14666SOL    HW245440   5.763   1.985  11.902  1.4008 -1.2514 -0.2304
14667SOL     OW45441   4.388   4.914  11.776 -0.1524  0.0627  0.1617
14667SOL    HW145442   4.330   4.852  11.820  0.0736 -0.7147 -0.6081
14667SOL    HW245443   4.422   4.969  11.846 -0.7443 -0.3641  0.7976
14668SOL     OW45444   4.017   6.049  11.968  0.2150  0.2268 -0.5393
14668SOL    HW145445   3.950   5.982  11.966  1.7718 -1.3959 -1.0604
14668SOL    HW245446   4.081   6.017  12.032  1.5311  0.6191 -1.5927
14669SOL     OW45447   6.403   3.616  12.101 -0.1760  0.1430 -0.1640
14669SOL    HW145448   6.390   3.603  12.007  1.8881 -2.3636 -0.1863
14669SOL    HW245449   6.495   3.641  12.109 -0.4631  0.8229  1.1886
14670SOL     OW45450   4.670   5.001   0.947 -0.8674 -0.6817 -0.0786
14670SOL    HW145451   4.734   4.983   0.878 -0.8298  0.0264 -0.2397
14670SOL    HW245452   4.708   5.075   0.996 -0.4700 -1.7396  1.2594
14671SOL     OW45453   2.516   4.532   0.874  0.3644 -0.0273  0.0856
14671SOL    HW145454   2.437   4.582   0.855  0.8419  0.9801  0.6704
14671SOL    HW245455   2.506   4.505   0.965  1.1819  1.0646  0.5178
14672SOL     OW45456   3.275   5.033   1.638 -0.5368  0.3650 -0.1467
14672SOL    HW145457   3.337   5.106   1.635 -0.9108  0.6702 -1.7600
14672SOL    HW245458   3.328   4.957   1.614 -0.8189  0.6961 -1.9736
14673SOL     OW45459   4.251   6.001   2.347  0.2774  0.5477 -0.2440
14673SOL    HW145460   4.236   5.940   2.275  1.5418  1.0281 -0.9350
14673SOL    HW245461   4.217   5.955   2.424 -2.9227  0.7773 -1.3378
14674SOL     OW45462   4.305   5.581  12.249 -0.1223  0.1209 -0.1212
14674SOL    HW145463   4.392   5.619  12.234 -0.8594  1.5792 -0.9966
14674SOL    HW245464   4.291   5.589  12.343  0.2166  0.9860 -0.1364
14675SOL     OW45465   4.552   4.864   2.221  0.1196  0.6610 -0.1475
14675SOL    HW145466   4.486   4.876   2.153 -0.5762  1.7028  0.6796
14675SOL    HW245467   4.610   4.796   2.187 -1.6052 -0.5998 -0.7319
14676SOL     OW45468   4.544   5.441  11.562 -0.8460 -0.4638 -0.2211
14676SOL    HW145469   4.533   5.427  11.656 -0.6999  1.3699  0.1052
14676SOL    HW245470   4.638   5.454  11.551 -0.7593 -1.4655 -0.7597
14677SOL     OW45471   3.451   5.436   0.470 -0.6540  0.4731  0.1371
14677SOL    HW145472   3.441   5.462   0.562 -0.2441  1.5521 -0.1129
14677SOL    HW245473   3.432   5.342   0.470  1.8162 -0.1452  1.7925
14678SOL     OW45474   4.730   2.950  11.576 -0.3302  0.0583 -0.2578
14678SOL    HW145475   4.682   2.935  11.658  2.2546  0.2156  1.4319
14678SOL    HW245476   4.804   3.006  11.602  0.0579  0.9146 -2.9322
14679SOL     OW45477   3.539   4.776   1.363  0.0394  0.2308  0.2538
14679SOL    HW145478   3.475   4.809   1.300  0.6943 -0.8900 -1.0430
14679SOL    HW245479   3.611   4.840   1.358  0.9170 -0.8080 -1.6006
14680SOL     OW45480   3.084   6.275  12.356  0.3367 -0.3627 -0.4374
14680SOL    HW145481   3.005   6.242  12.313  0.5116  1.3105 -2.1837
14680SOL    HW245482   3.081   6.370  12.341  2.2205 -0.1633  0.2304
14681SOL     OW45483   4.469   4.627   1.664 -0.1297 -0.5826  0.2574
14681SOL    HW145484   4.451   4.695   1.730 -1.9805 -0.6576 -0.1069
14681SOL    HW245485   4.390   4.572   1.665 -0.0167 -0.8415 -1.7022
14682SOL     OW45486   4.863   4.542  12.256 -0.2285 -0.2013 -0.3247
14682SOL    HW145487   4.836   4.480  12.324 -0.6265  1.0006  0.6557
14682SOL    HW245488   4.874   4.625  12.303  1.6854  0.1788 -1.3382
14683SOL     OW45489   5.984   3.934  12.363  0.5038 -0.0541 -0.2620
14683SOL    HW145490   6.005   3.996  12.293  0.8433 -0.2989 -0.3813
14683SOL    HW245491   6.006   3.848  12.326  0.3463 -0.2151  0.0182
14684SOL     OW45492   5.489   3.101   2.303  0.4013 -0.0360  0.0941
14684SOL    HW145493   5.474   3.184   2.258 -0.9037 -0.1311  0.3036
14684SOL    HW245494   5.584   3.093   2.307  0.5460  0.6360 -1.3923
14685SOL     OW45495   3.287   6.210   0.721  0.1337 -0.2546  0.6548
14685SOL    HW145496   3.285   6.231   0.628  0.2997 -1.2926  0.4098
14685SOL    HW245497   3.368   6.250   0.753 -0.3602  0.8642  0.5545
14686SOL     OW45498   5.449   4.601   1.738 -0.1647 -0.0415  0.3255
14686SOL    HW145499   5.513   4.544   1.694  0.0702  0.4274  0.0517
14686SOL    HW245500   5.436   4.674   1.677 -0.6585  0.0688  0.5593
14687SOL     OW45501   4.232   4.082   2.707 -0.7517  0.2836 -0.1552
14687SOL    HW145502   4.253   4.145   2.776 -1.0338 -0.2309  0.4098
14687SOL    HW245503   4.145   4.049   2.730 -0.9011  0.2030 -0.8297
14688SOL     OW45504   3.448   4.244   0.179  0.0495 -0.1532 -0.3613
14688SOL    HW145505   3.506   4.193   0.236  0.5874  0.8583  0.0134
14688SOL    HW245506   3.442   4.192   0.099  0.0835 -1.1056  0.2375
14689SOL     OW45507   3.415   3.149   0.048 -0.3062 -0.1837 -0.1981
14689SOL    HW145508   3.475   3.080   0.020  1.1069  1.4743 -1.4607
14689SOL    HW245509   3.341   3.143  -0.012  0.0474 -0.2738 -0.6248
14690SOL     OW45510   5.894   5.026  12.126  0.2929  0.8232  0.0533
14690SOL    HW145511   5.887   5.085  12.201 -1.4162 -0.7165  1.2013
14690SOL    HW245512   5.907   4.939  12.165  3.1798  0.3901 -1.5812
14691SOL     OW45513   4.097   2.976  10.936 -0.3739  0.3372  0.1164
14691SOL    HW145514   4.177   3.028  10.938  0.2358 -0.5500  2.6469
14691SOL    HW245515   4.119   2.900  10.883  0.3663  0.2687  0.5126
14692SOL     OW45516   5.609   2.633   0.231 -0.1569 -0.0742  0.3409
14692SOL    HW145517   5.604   2.641   0.136 -0.3066  0.4705  0.3897
14692SOL    HW245518   5.578   2.718   0.264  0.1488 -0.1605  0.8673
14693SOL     OW45519   3.035   6.144   1.629 -0.0269  0.6372 -0.6842
14693SOL    HW145520   2.971   6.198   1.584  0.1039 -1.0144 -2.9934
14693SOL    HW245521   3.105   6.130   1.565  1.0867 -0.3053  0.6652
14694SOL     OW45522   3.905   5.371   0.423 -0.0872  0.2462  0.0283
14694SOL    HW145523   3.912   5.368   0.327  0.1426  0.4272  0.0380
14694SOL    HW245524   3.884   5.282   0.448  0.4728  0.0631 -0.1429
14695SOL     OW45525   4.076   7.221   2.817 -0.2025 -0.0183  0.0726
14695SOL    HW145526   4.082   7.220   2.913 -1.4053 -0.9669  0.1597
14695SOL    HW245527   4.154   7.270   2.789  0.0069  0.5475  1.5348
14696SOL     OW45528   4.428   4.660   1.062 -0.4373  0.4104 -0.6507
14696SOL    HW145529   4.355   4.707   1.102 -0.5110  0.7881 -1.2248
14696SOL    HW245530   4.453   4.714   0.987 -0.1032 -0.1411 -0.9403
14697SOL     OW45531   5.335   5.127  11.983  0.0053 -0.4057  0.3062
14697SOL    HW145532   5.296   5.051  11.940  2.0915 -1.3991  0.0824
14697SOL    HW245533   5.381   5.174  11.913 -0.3569  0.4863  0.6442
14698SOL     OW45534   3.091   3.325   0.409 -0.0402 -0.1732  0.1440
14698SOL    HW145535   3.145   3.308   0.332 -0.5160 -0.5973 -0.1066
14698SOL    HW245536   3.051   3.410   0.392  1.2753  0.5993  0.7671
14699SOL     OW45537   3.895   4.052   0.801 -0.3472 -0.4999 -0.7947
14699SOL    HW145538   3.801   4.055   0.818 -0.2461 -1.2235 -0.0241
14699SOL    HW245539   3.914   3.959   0.788  0.6313 -0.6535  1.3741
14700SOL     OW45540   4.270   4.044   0.826 -0.1177  0.4981 -0.0012
14700SOL    HW145541   4.217   4.054   0.747  0.7735 -0.0222 -0.6784
14700SOL    HW245542   4.300   4.133   0.846  0.9042  0.4454 -1.1536
14701SOL     OW45543   5.339   4.395   0.723  0.0169  0.0256 -0.3643
14701SOL    HW145544   5.273   4.359   0.663 -0.0926  0.8982 -0.7766
14701SOL    HW245545   5.293   4.403   0.806  0.1131 -1.0022 -0.1874
14702SOL     OW45546   5.474   4.925   0.243  0.2955  0.3084  0.4504
14702SOL    HW145547   5.478   4.983   0.320 -2.0126 -1.5584  2.1018
14702SOL    HW245548   5.382   4.927   0.216  1.1118  1.3071 -2.7031
14703SOL     OW45549   5.578   3.613   0.124 -0.2844 -0.2406  0.3575
14703SOL    HW145550   5.615   3.637   0.209 -1.5782 -0.8534  1.1281
14703SOL    HW245551   5.532   3.531   0.141 -2.4605  0.7552 -0.3992
14704SOL     OW45552   6.135   3.859  11.543 -0.5215  0.1962 -0.6371
14704SOL    HW145553   6.067   3.925  11.558 -0.0534  0.7935 -1.1042
14704SOL    HW245554   6.144   3.815  11.628  1.1528  2.6496  0.5801
14705SOL     OW45555   3.470   5.941  12.315  0.0782 -0.0331  0.4388
14705SOL    HW145556   3.404   5.961  12.249  0.6962  2.1071  0.3940
14705SOL    HW245557   3.422   5.939  12.398  0.1702  4.2548  0.8122
14706SOL     OW45558   4.389   5.633   0.932 -0.0309 -0.0767 -0.4153
14706SOL    HW145559   4.356   5.546   0.910  1.4832 -0.5228 -1.0217
14706SOL    HW245560   4.376   5.640   1.027  2.3374 -2.1306  0.1695
14707SOL     OW45561   4.821   2.754  11.421  0.2475  0.7310  0.5641
14707SOL    HW145562   4.782   2.828  11.468  1.5052  0.6951  1.7112
14707SOL    HW245563   4.913   2.779  11.408  0.5868 -0.4411  0.5794
14708SOL     OW45564   4.448   4.632  11.895 -0.3676  0.0100  0.0273
14708SOL    HW145565   4.413   4.616  11.808 -0.1111 -1.3064  0.1469
14708SOL    HW245566   4.371   4.640  11.952 -0.5750  1.9663 -0.4594
14709SOL     OW45567   4.819   6.340   2.412 -0.5613 -0.7175  0.3574
14709SOL    HW145568   4.808   6.270   2.348 -0.1530 -1.7838  1.4107
14709SOL    HW245569   4.730   6.356   2.446 -0.5700 -1.1311  0.5290
14710SOL     OW45570   3.816   7.063   1.423 -0.8032 -0.2575  0.0104
14710SOL    HW145571   3.834   7.156   1.410  0.0874 -0.2946  0.8366
14710SOL    HW245572   3.889   7.018   1.381  1.2194 -0.4200  3.3183
14711SOL     OW45573   4.424   6.084   1.569 -0.8383  0.1996  0.6835
14711SOL    HW145574   4.347   6.028   1.558 -0.3399 -0.4432  0.4227
14711SOL    HW245575   4.466   6.053   1.649 -0.8044  0.4982  0.7840
14712SOL     OW45576   5.399   4.976   0.621 -0.2624 -0.1202 -0.0925
14712SOL    HW145577   5.327   4.952   0.562 -1.1950  1.4505  0.3436
14712SOL    HW245578   5.469   5.005   0.562 -0.0718 -1.3271 -0.5044
14713SOL     OW45579   3.545   3.921   1.811  0.3324 -0.1519 -0.0756
14713SOL    HW145580   3.621   3.864   1.815 -0.1869 -0.8337  0.2822
14713SOL    HW245581   3.580   4.009   1.824  0.8507 -0.6093  1.9185
14714SOL     OW45582   5.585   6.225   1.156 -0.3780  0.5228  0.2374
14714SOL    HW145583   5.562   6.261   1.242  0.9752 -0.7226  1.1740
14714SOL    HW245584   5.664   6.175   1.172 -1.5790 -2.0099 -1.1730
14715SOL     OW45585   3.785   3.783   1.822 -0.3535  0.2375 -0.5327
14715SOL    HW145586   3.824   3.779   1.734 -0.0543 -1.4359 -0.3507
14715SOL    HW245587   3.848   3.834   1.873  0.3293 -0.2359 -0.8803
14716SOL     OW45588   2.594   3.489   1.805 -0.5664 -0.0745 -0.1012
14716SOL    HW145589   2.689   3.484   1.794 -0.3616 -0.9198  1.5984
14716SOL    HW245590   2.567   3.561   1.748  0.8259 -0.9724 -2.0247
14717SOL     OW45591   4.628   4.243   1.504  0.0877  0.4229 -0.2669
14717SOL    HW145592   4.568   4.184   1.550  0.3951  0.7230  0.5419
14717SOL    HW245593   4.572   4.297   1.449 -0.4145  0.7963  0.5916
14718SOL     OW45594   3.636   4.135   1.066 -0.2138 -0.4951  0.4037
14718SOL    HW145595   3.557   4.170   1.108 -1.0230 -0.4763 -1.0266
14718SOL    HW245596   3.702   4.202   1.080 -1.3690  1.0744 -1.1143
14719SOL     OW45597   2.709   4.598  11.618  0.3175 -0.4997  0.7184
14719SOL    HW145598   2.665   4.668  11.666 -1.3769 -0.4082 -0.8910
14719SOL    HW245599   2.758   4.551  11.686 -1.7315 -0.1977  2.5368
14720SOL     OW45600   3.581   3.766  12.238 -0.0638 -0.5419  0.4467
14720SOL    HW145601   3.576   3.702  12.167  1.0207  0.2326 -0.3736
14720SOL    HW245602   3.649   3.828  12.209  0.7318 -0.4491  2.3649
14721SOL     OW45603   4.497   3.787   2.302  0.4072 -0.0790  0.0894
14721SOL    HW145604   4.502   3.691   2.301  0.7920 -0.1542  2.4820
14721SOL    HW245605   4.419   3.806   2.354  1.2288  0.8874  0.9940
14722SOL     OW45606   4.258   5.125  11.664 -0.0528  0.1490  0.3860
14722SOL    HW145607   4.311   5.052  11.695  1.9820  1.4041  0.0212
14722SOL    HW245608   4.283   5.199  11.719 -1.2667  0.8602  0.0449
14723SOL     OW45609   5.143   4.207   0.605  1.0843 -0.2600 -0.1875
14723SOL    HW145610   5.120   4.166   0.688  1.7463  1.0017  0.6560
14723SOL    HW245611   5.060   4.239   0.570  0.8302 -0.6035  0.0968
14724SOL     OW45612   3.899   7.418   1.722 -0.0979 -0.1478  0.4347
14724SOL    HW145613   3.819   7.461   1.754 -0.2642 -0.8318  0.9674
14724SOL    HW245614   3.955   7.411   1.799  0.8447  1.0776 -0.1004
14725SOL     OW45615   5.576   5.733   0.070 -0.3990 -0.4873  0.2136
14725SOL    HW145616   5.636   5.766   0.137  0.3443 -0.1069 -0.6162
14725SOL    HW245617   5.497   5.710   0.118 -0.5007  1.3537  1.0112
14726SOL     OW45618   2.651   4.149  11.758 -0.6941  0.4408  0.1891
14726SOL    HW145619   2.585   4.080  11.747 -1.0946  0.6806  1.0713
14726SOL    HW245620   2.697   4.126  11.838  0.4839  0.1386 -0.5369
14727SOL     OW45621   4.465   4.905   0.343 -0.7364 -0.6878  0.4175
14727SOL    HW145622   4.558   4.884   0.337 -0.7918 -0.7678 -0.2285
14727SOL    HW245623   4.457   4.994   0.310 -0.7783 -0.3660  1.2723
14728SOL     OW45624   4.185   2.312   0.957 -0.0275 -0.0702  0.4840
14728SOL    HW145625   4.109   2.339   0.906 -1.0766  2.0766  2.9348
14728SOL    HW245626   4.254   2.299   0.892 -1.0613  3.1521 -1.5285
14729SOL     OW45627   3.950   4.323   1.585  0.0769 -0.3396 -0.0242
14729SOL    HW145628   3.957   4.302   1.678  0.8979  0.1460  0.0415
14729SOL    HW245629   3.891   4.258   1.549  0.6632 -1.2492  0.6197
14730SOL     OW45630   2.992   2.942   1.788 -0.3402  0.6561  0.5816
14730SOL    HW145631   3.068   2.939   1.729 -0.0181  2.5127  0.8259
14730SOL    HW245632   2.974   3.036   1.797 -2.3379  0.2614  0.9610
14731SOL     OW45633   4.199   3.135   1.279 -0.4754  0.0387 -0.1705
14731SOL    HW145634   4.166   3.061   1.226  0.2650 -0.6115  0.2561
14731SOL    HW245635   4.288   3.148   1.249 -0.6580  0.8907 -0.3593
14732SOL     OW45636   3.193   3.963   0.780 -0.0085 -0.3000  0.0780
14732SOL    HW145637   3.171   4.045   0.823  0.6798  0.2189 -0.5271
14732SOL    HW245638   3.121   3.948   0.718 -0.8509 -0.8993  1.1612
14733SOL     OW45639   1.852   4.261  11.820  0.1986  0.5859  0.1083
14733SOL    HW145640   1.816   4.341  11.860  0.0016  0.5192  0.0666
14733SOL    HW245641   1.817   4.190  11.873 -0.5645  0.4618 -0.5501
14734SOL     OW45642   3.353   4.429   0.853 -0.1481  0.1598 -0.5035
14734SOL    HW145643   3.430   4.479   0.881  0.3651 -0.7803 -0.2169
14734SOL    HW245644   3.302   4.491   0.800 -1.3277  2.1571  2.6737
14735SOL     OW45645   5.237   6.922   0.339  0.0256 -0.0017  0.1080
14735SOL    HW145646   5.218   7.008   0.303  0.7856  0.0589 -0.1622
14735SOL    HW245647   5.295   6.881   0.275 -1.1021 -1.0943 -0.2487
14736SOL     OW45648   5.802   2.833  12.065 -0.3372  0.2620  0.1221
14736SOL    HW145649   5.760   2.914  12.094  0.5732  0.9047 -0.3497
14736SOL    HW245650   5.889   2.835  12.104  0.1474  0.1239 -0.9208
14737SOL     OW45651   4.627   4.390   2.201  0.2406  0.5446  0.1709
14737SOL    HW145652   4.584   4.319   2.153 -0.1605  0.5916  0.4523
14737SOL    HW245653   4.705   4.349   2.239 -1.4866 -0.5918  2.8440
14738SOL     OW45654   4.693   3.881   2.030 -0.6695  0.4087 -0.9062
14738SOL    HW145655   4.663   3.842   2.112 -0.0200  1.0096 -0.3692
14738SOL    HW245656   4.784   3.851   2.021 -0.6279  0.6234 -1.2321
14739SOL     OW45657   5.452   4.402   2.258 -0.0410 -0.1008 -0.1564
14739SOL    HW145658   5.443   4.464   2.185  0.0896  0.8088  0.5943
14739SOL    HW245659   5.398   4.438   2.328 -0.4603 -1.1675  0.0929
14740SOL     OW45660   3.696   4.724   0.204  0.0838  0.0092 -0.0852
14740SOL    HW145661   3.751   4.761   0.135  1.1088 -0.8036  0.2837
14740SOL    HW245662   3.677   4.635   0.174  0.2703 -0.2416  0.5280
14741SOL     OW45663   3.465   4.301   2.491  0.3850  0.1805 -0.2368
14741SOL    HW145664   3.506   4.217   2.473  0.4262  0.0003  0.6357
14741SOL    HW245665   3.536   4.357   2.521  0.3033  0.4271 -0.5036
14742SOL     OW45666   3.974   3.495   1.520 -0.3002 -0.1303  0.0611
14742SOL    HW145667   3.929   3.412   1.536  0.9773 -1.0089 -0.6961
14742SOL    HW245668   3.946   3.522   1.433 -0.2223 -0.0931  0.0472
14743SOL     OW45669   6.072   4.379   0.113  0.2269 -0.3599  0.2987
14743SOL    HW145670   6.002   4.387   0.177 -1.5384 -2.3927 -1.2339
14743SOL    HW245671   6.138   4.324   0.156 -0.4821 -0.8680  0.7580
14744SOL     OW45672   4.286   5.811   1.592 -0.3620 -0.1949 -0.3060
14744SOL    HW145673   4.283   5.822   1.687 -1.1190  1.5266 -0.4920
14744SOL    HW245674   4.198   5.778   1.570 -0.6691  0.7580 -0.5380
14745SOL     OW45675   4.319   5.569   1.879 -0.1372 -0.1413 -0.3821
14745SOL    HW145676   4.308   5.556   1.785  2.1795 -0.9437 -0.6045
14745SOL    HW245677   4.352   5.485   1.912 -0.9175  0.1140  1.1707
14746SOL     OW45678   3.980   3.384   1.833 -0.0673 -0.2341 -0.0709
14746SOL    HW145679   3.919   3.423   1.896  1.0849  0.5270  0.6074
14746SOL    HW245680   3.924   3.339   1.770 -1.3143  0.2271  0.6778
14747SOL     OW45681   6.480   3.389   0.485  0.2598  0.0434 -0.1957
14747SOL    HW145682   6.542   3.438   0.430 -0.2563 -0.1975 -1.0051
14747SOL    HW245683   6.494   3.424   0.573  0.9380  0.6028 -0.5137
14748SOL     OW45684   5.676   2.367   0.267  0.1888  0.0518  0.4776
14748SOL    HW145685   5.646   2.455   0.288 -1.7745 -0.2394 -0.8116
14748SOL    HW245686   5.741   2.380   0.198 -0.0046  0.5016  0.3766
14749SOL     OW45687   4.147   5.176   2.810  0.2081 -0.2406  0.4482
14749SOL    HW145688   4.075   5.148   2.867 -0.2783 -1.4906 -0.7217
14749SOL    HW245689   4.110   5.170   2.722  1.1155  1.1237 -0.0497
14750SOL     OW45690   2.968   4.922   0.961  0.3537 -0.1428 -0.0465
14750SOL    HW145691   2.879   4.951   0.941  0.7157  0.5194 -0.7767
14750SOL    HW245692   3.009   4.997   1.004  0.4958 -0.5147  0.4677
14751SOL     OW45693   2.885   4.440   1.520 -0.4392  0.1148 -0.4460
14751SOL    HW145694   2.907   4.493   1.597 -1.4337 -1.3455  0.8976
14751SOL    HW245695   2.828   4.496   1.468  0.4296  1.2102 -0.2706
14752SOL     OW45696   3.251   4.636   0.079 -0.1311 -0.2877  0.4052
14752SOL    HW145697   3.208   4.721   0.068  2.9864  1.4873  0.8108
14752SOL    HW245698   3.286   4.616  -0.008  0.2590 -0.4707  0.6007
14753SOL     OW45699   2.750   4.431   1.941  0.1959  0.5006 -0.1085
14753SOL    HW145700   2.804   4.423   2.020 -2.4589  1.3791  1.9228
14753SOL    HW245701   2.746   4.526   1.924  0.1500  0.3683 -0.8841
14754SOL     OW45702   5.190   2.146  12.116 -0.4617  0.0260  0.3014
14754SOL    HW145703   5.266   2.168  12.061 -0.7189  0.0445 -0.0499
14754SOL    HW245704   5.135   2.224  12.113 -0.9340 -0.3188 -0.1943
14755SOL     OW45705   2.832   5.030  11.821 -0.0938  0.5808  0.2444
14755SOL    HW145706   2.806   4.950  11.868 -0.1210 -0.2094 -1.0724
14755SOL    HW245707   2.928   5.028  11.823 -0.0937  0.7742  0.6134
14756SOL     OW45708   4.168   4.666   1.209 -0.1023  0.1208  0.2520
14756SOL    HW145709   4.157   4.733   1.141 -0.5861  0.0430  0.2496
14756SOL    HW245710   4.080   4.654   1.245 -0.3866 -1.8709 -1.0134
14757SOL     OW45711   4.132   4.211   2.114 -0.4447  0.1350  0.0772
14757SOL    HW145712   4.082   4.239   2.191  1.6119  1.3705  1.0426
14757SOL    HW245713   4.210   4.169   2.149 -0.9310 -2.2323 -1.3933
14758SOL     OW45714   3.911   4.661   2.513  0.8822  0.0744 -0.1601
14758SOL    HW145715   4.003   4.659   2.486  1.1404 -1.2213  0.7154
14758SOL    HW245716   3.894   4.753   2.534  1.6437  0.5208 -1.3837
14759SOL     OW45717   5.687   4.408   0.781 -0.0841  0.1013  0.7941
14759SOL    HW145718   5.619   4.354   0.742 -1.2409  1.4114  0.8884
14759SOL    HW245719   5.769   4.370   0.750 -0.8916 -0.6094 -0.5833
14760SOL     OW45720   3.049   5.760  12.269 -0.1669 -1.0042 -0.1501
14760SOL    HW145721   3.132   5.743  12.225 -0.5018 -1.7665 -0.4993
14760SOL    HW245722   3.074   5.806  12.350  0.3756  1.3503 -1.5651
14761SOL     OW45723   4.623   4.527   1.174 -0.6817  0.2268  0.0525
14761SOL    HW145724   4.566   4.595   1.139  0.8927  1.8810  0.5960
14761SOL    HW245725   4.684   4.573   1.231 -0.6099 -1.8765  1.7724
14762SOL     OW45726   3.292   4.111   1.459 -0.7170 -0.5080 -0.0658
14762SOL    HW145727   3.344   4.151   1.529 -0.1074 -2.0831  0.4245
14762SOL    HW245728   3.240   4.183   1.424  0.2474  0.6774  0.8451
14763SOL     OW45729   6.253   5.645   1.008 -0.2061  1.1736  0.0331
14763SOL    HW145730   6.167   5.620   1.043 -0.3557 -0.9275 -1.6249
14763SOL    HW245731   6.314   5.626   1.079 -0.7321 -0.9343  0.0087
14764SOL     OW45732   5.979   5.903  12.045 -0.0698 -0.0122  0.2898
14764SOL    HW145733   5.962   5.913  12.139  0.1934  1.0163  0.2473
14764SOL    HW245734   6.021   5.986  12.020 -0.2783 -0.2130 -0.7635
14765SOL     OW45735   3.924   2.899   1.848 -0.6817 -0.0390  0.2801
14765SOL    HW145736   3.859   2.968   1.839  0.1276  1.2017  3.0676
14765SOL    HW245737   3.956   2.907   1.937  1.9020 -1.8605 -0.3710
14766SOL     OW45738   4.098   6.105   0.975  0.5877  0.5718 -0.0993
14766SOL    HW145739   4.028   6.144   1.027  0.1754 -1.0502  0.6150
14766SOL    HW245740   4.179   6.134   1.018  0.2698 -0.1098  0.9911
14767SOL     OW45741   4.012   3.105   0.343 -0.1283 -0.4204  0.2397
14767SOL    HW145742   3.958   3.122   0.265 -0.6135  0.3256  0.7192
14767SOL    HW245743   4.089   3.161   0.332 -0.4764  0.1328  0.5662
14768SOL     OW45744   5.048   4.394   0.227  0.5384 -0.0376  0.0698
14768SOL    HW145745   5.077   4.418   0.315  0.7838  0.1608 -0.0644
14768SOL    HW245746   5.027   4.301   0.233  0.5514 -0.0238  0.3393
14769SOL     OW45747   4.355   4.286   0.869 -0.1239 -0.1494 -0.3028
14769SOL    HW145748   4.322   4.375   0.861  0.3395  0.0171 -0.4155
14769SOL    HW245749   4.448   4.297   0.891 -0.1985 -0.6032  0.2581
14770SOL     OW45750   4.032   2.860   2.109 -0.3203 -0.0061 -0.3865
14770SOL    HW145751   4.123   2.854   2.078 -0.1336  1.1295 -0.1155
14770SOL    HW245752   4.036   2.834   2.201 -0.0868  0.9540 -0.1111
14771SOL     OW45753   4.090   6.226   1.677  0.3255  0.2822  0.4142
14771SOL    HW145754   4.093   6.300   1.617  3.7672  0.5929  0.7876
14771SOL    HW245755   4.161   6.241   1.739  1.1977 -3.2662  0.5177
14772SOL     OW45756   4.382   5.199   2.944 -0.0813 -0.1495  0.5675
14772SOL    HW145757   4.364   5.131   3.010 -1.1401  0.1451  0.6060
14772SOL    HW245758   4.343   5.165   2.864  1.0733 -0.4353  0.1173
14773SOL     OW45759   4.192   4.707   0.628  0.1641 -0.3596  0.0695
14773SOL    HW145760   4.237   4.788   0.653 -0.5250 -0.4169  1.5877
14773SOL    HW245761   4.249   4.668   0.562  1.9436 -0.0377  1.3411
14774SOL     OW45762   5.044   6.079   1.944 -0.3357 -0.7865  0.0234
14774SOL    HW145763   4.996   6.141   1.999  0.7683 -1.6714  2.1040
14774SOL    HW245764   4.988   6.066   1.868 -2.4760 -0.3257  1.4308
14775SOL     OW45765   6.226   4.566   1.263  0.6123 -0.5802  0.3471
14775SOL    HW145766   6.313   4.587   1.297  0.6375 -1.1232  0.6371
14775SOL    HW245767   6.170   4.565   1.341  0.3310 -0.1606  0.1513
14776SOL     OW45768   3.423   3.891  12.416  0.1161  0.2354 -0.7532
14776SOL    HW145769   3.484   3.850  12.355  1.2038 -1.9127  1.6074
14776SOL    HW245770   3.460   3.977  12.434  1.4071 -0.2924 -0.8273
14777SOL     OW45771   4.216   4.389  11.819  0.0940 -0.8354 -0.0254
14777SOL    HW145772   4.125   4.370  11.796  0.4507 -2.1060 -0.4769
14777SOL    HW245773   4.212   4.416  11.911 -0.5583 -2.6983  0.5470
14778SOL     OW45774   5.055   5.028   0.613 -0.1100 -0.2596  0.0801
14778SOL    HW145775   5.056   5.117   0.648  0.2028 -0.1014 -0.3274
14778SOL    HW245776   4.972   4.992   0.644 -0.9923  0.7038 -1.0640
14779SOL     OW45777   3.810   4.093  11.305 -0.0504  0.4824  0.3297
14779SOL    HW145778   3.894   4.056  11.278 -1.4675 -1.9116 -1.1850
14779SOL    HW245779   3.773   4.028  11.365 -1.1362  1.1321  0.4031
14780SOL     OW45780   4.358   4.631   0.436  0.1826  0.3908  0.4630
14780SOL    HW145781   4.372   4.709   0.382 -0.9098  0.2643 -0.0312
14780SOL    HW245782   4.446   4.604   0.462  0.7397  0.4417 -1.2804
14781SOL     OW45783   2.989   7.644   0.477 -0.2819  0.0886  0.6786
14781SOL    HW145784   2.932   7.606   0.410  0.5162  1.7051 -0.9980
14781SOL    HW245785   2.930   7.699   0.530 -0.5794  0.4882 -0.0458
14782SOL     OW45786   4.954   5.004   0.103  0.2942 -0.1153 -0.3866
14782SOL    HW145787   4.905   5.040   0.177 -0.4808  0.7252 -1.2704
14782SOL    HW245788   4.994   5.081   0.062  2.1685 -0.7636  0.1484
14783SOL     OW45789   4.802   5.383   1.521 -0.0154  0.5262  0.3350
14783SOL    HW145790   4.742   5.420   1.586 -0.5537  0.4523 -0.1228
14783SOL    HW245791   4.867   5.336   1.574 -0.1145  0.9540  0.8524
14784SOL     OW45792   6.272   2.755   1.698 -0.3897 -0.9559  0.2338
14784SOL    HW145793   6.250   2.704   1.776  1.3678 -0.0378  1.4192
14784SOL    HW245794   6.252   2.846   1.721  1.3271 -0.5074  0.1600
14785SOL     OW45795   5.033   6.099   0.306  0.8297  0.4730 -0.7441
14785SOL    HW145796   5.087   6.025   0.278  0.1580 -0.4103  0.2213
14785SOL    HW245797   5.075   6.176   0.267  0.9796 -0.4975 -2.6007
14786SOL     OW45798   5.936   4.761   0.533  0.5695 -0.6333 -0.5335
14786SOL    HW145799   5.898   4.676   0.554  1.4143 -0.8622  0.1676
14786SOL    HW245800   5.915   4.775   0.441  1.3149 -2.0984 -0.9680
14787SOL     OW45801   5.410   4.390   0.289  0.1041  0.2527  0.1393
14787SOL    HW145802   5.476   4.336   0.332 -0.4092  0.9644  1.9220
14787SOL    HW245803   5.426   4.377   0.195  0.6466 -2.1451  0.4852
14788SOL     OW45804   3.527   3.828   2.075 -0.1882 -0.0430  0.0996
14788SOL    HW145805   3.534   3.738   2.042  3.6751  0.2310 -0.2149
14788SOL    HW245806   3.494   3.878   2.001  1.2679 -0.6389 -0.9850
14789SOL     OW45807   5.699   2.127  12.491  0.6070  0.2385 -0.0887
14789SOL    HW145808   5.642   2.050  12.498 -0.7728  1.1772 -0.5335
14789SOL    HW245809   5.699   2.148  12.398  2.1909 -0.0881 -0.1802
14790SOL     OW45810   4.716   4.925   1.611 -0.0240  0.4041  0.6701
14790SOL    HW145811   4.647   4.902   1.550 -0.8092 -0.9894  2.0334
14790SOL    HW245812   4.672   4.974   1.681  0.5490  0.4148  1.0341
14791SOL     OW45813   3.838   3.368  12.226  0.3125 -0.3427  0.0785
14791SOL    HW145814   3.760   3.402  12.183 -0.1642 -1.2555  0.1980
14791SOL    HW245815   3.902   3.358  12.156  0.6807  1.3279  0.1245
14792SOL     OW45816   5.936   4.502   1.035 -0.4828 -0.1915 -0.2246
14792SOL    HW145817   5.913   4.556   0.959 -1.8994  0.8139  0.8676
14792SOL    HW245818   6.029   4.522   1.050 -0.6102  0.8808 -0.7046
14793SOL     OW45819   3.085   3.406  12.486  0.1261  0.2330  0.0176
14793SOL    HW145820   3.045   3.458  12.416  0.2740 -0.4149 -0.5533
14793SOL    HW245821   3.157   3.460  12.518 -0.3200  0.7949  0.0926
14794SOL     OW45822   6.478   4.608   1.591  0.5321 -0.2137  0.7469
14794SOL    HW145823   6.444   4.691   1.560 -1.3713 -0.5343  1.8064
14794SOL    HW245824   6.486   4.554   1.512 -1.7152 -0.1681  0.4053
14795SOL     OW45825   3.666   4.257   1.393 -0.3201  0.5378 -0.2222
14795SOL    HW145826   3.610   4.321   1.349  0.3056  2.5666  1.7632
14795SOL    HW245827   3.622   4.239   1.476 -0.7523 -2.1285 -0.9255
14796SOL     OW45828   4.856   4.290   1.330 -0.5681  0.1978 -0.4989
14796SOL    HW145829   4.879   4.381   1.311  0.1661  0.1112 -0.0640
14796SOL    HW245830   4.779   4.296   1.386 -0.3721  0.5599 -0.2672
14797SOL     OW45831   3.874   5.947   2.279  0.5393 -0.3324  0.4446
14797SOL    HW145832   3.821   6.027   2.286 -1.3536 -1.4173 -0.7487
14797SOL    HW245833   3.944   5.970   2.218 -0.3648  0.2545 -0.4007
14798SOL     OW45834   6.153   4.867   1.669 -0.5408 -0.2309  0.5680
14798SOL    HW145835   6.106   4.788   1.694 -1.1130  0.1080  0.5609
14798SOL    HW245836   6.101   4.905   1.599  0.7609 -0.8920 -0.8287
14799SOL     OW45837   6.599   3.562  11.655  0.3517  0.2352 -0.5622
14799SOL    HW145838   6.691   3.547  11.677  0.2639  0.3815 -0.0876
14799SOL    HW245839   6.601   3.637  11.595  0.5357  0.2484 -0.5414
14800SOL     OW45840   3.346   4.706   1.011  0.3867 -0.0705  0.3207
14800SOL    HW145841   3.322   4.629   1.063  1.3252 -0.9029 -0.4139
14800SOL    HW245842   3.439   4.694   0.994  0.5585  1.2791  0.2313
14801SOL     OW45843   3.920   4.718   0.604 -0.1083 -0.3388  0.2792
14801SOL    HW145844   4.015   4.728   0.605  0.0480 -1.5493  2.3679
14801SOL    HW245845   3.898   4.683   0.690 -2.3499 -1.0767 -0.5155
14802SOL     OW45846   4.982   6.635   0.795 -0.2668  0.1599 -0.4088
14802SOL    HW145847   5.068   6.628   0.836 -0.3557  2.8007  0.4180
14802SOL    HW245848   4.985   6.719   0.748 -1.9349 -0.3498 -1.5084
14803SOL     OW45849   4.547   5.261  11.367 -0.4842  0.6141 -0.3331
14803SOL    HW145850   4.503   5.186  11.406  1.4901 -0.5227 -0.1328
14803SOL    HW245851   4.546   5.329  11.435 -4.4754  1.8406 -1.3417
14804SOL     OW45852   3.977   5.130  11.695 -0.5342  0.2367 -0.6182
14804SOL    HW145853   4.067   5.136  11.662 -0.6901 -1.4957 -1.5057
14804SOL    HW245854   3.945   5.220  11.696  0.9921  0.8093 -0.9208
14805SOL     OW45855   4.100   5.442   2.362  0.0677  0.1819  0.3330
14805SOL    HW145856   4.164   5.450   2.291  0.1991 -0.1139  0.4159
14805SOL    HW245857   4.125   5.511   2.424  0.5563 -0.1841  0.5528
14806SOL     OW45858   3.702   4.336   0.725 -0.1922 -0.3414  0.0407
14806SOL    HW145859   3.630   4.280   0.753 -0.6882 -0.5422 -1.5140
14806SOL    HW245860   3.758   4.279   0.673  0.7921 -0.0422  0.7475
14807SOL     OW45861   3.985   6.348   2.672 -0.4184  0.4339 -0.1456
14807SOL    HW145862   3.902   6.390   2.646 -0.2688  1.2917  0.6918
14807SOL    HW245863   4.000   6.281   2.606 -1.0679  1.2069 -1.1070
14808SOL     OW45864   4.293   5.248   1.955  0.9471 -0.2828 -0.9870
14808SOL    HW145865   4.325   5.216   2.039 -0.4654  2.5433  0.7905
14808SOL    HW245866   4.229   5.182   1.927  0.3669 -0.5937  0.9203
14809SOL     OW45867   3.538   4.557   0.647  0.0785 -0.4351  0.2041
14809SOL    HW145868   3.595   4.480   0.646  0.9352  0.1782 -0.4886
14809SOL    HW245869   3.457   4.528   0.604 -0.0399 -1.2478  0.9614
14810SOL     OW45870   4.508   4.876   1.432 -0.0123  0.2261  0.3070
14810SOL    HW145871   4.443   4.811   1.459 -0.5449 -0.4531 -2.3195
14810SOL    HW245872   4.457   4.950   1.399  0.5939  1.2690  1.6269
14811SOL     OW45873   4.943   5.577   0.771 -0.2105  0.2882  0.0721
14811SOL    HW145874   5.012   5.618   0.719 -1.0737 -0.0980 -1.4445
14811SOL    HW245875   4.887   5.532   0.706 -1.0139 -0.6955  1.3858
14812SOL     OW45876   4.820   3.531  12.491  0.3556  0.3661  0.4029
14812SOL    HW145877   4.777   3.446  12.476 -1.8308  1.1397  1.8006
14812SOL    HW245878   4.824   3.571  12.404 -0.9139 -0.1473  0.0768
14813SOL     OW45879   4.970   3.625   0.920  0.4088 -0.2516  0.4956
14813SOL    HW145880   4.973   3.531   0.934  0.0050 -0.3873 -0.2701
14813SOL    HW245881   4.975   3.635   0.825  1.5761  0.5498  0.6223
14814SOL     OW45882   3.703   2.415   1.544 -0.0894  0.2654 -0.2130
14814SOL    HW145883   3.661   2.331   1.565  1.6075 -0.7795 -0.8279
14814SOL    HW245884   3.695   2.423   1.449  0.7651  0.2186 -0.2967
14815SOL     OW45885   5.176   5.965   1.221  0.4301  0.5121 -0.8450
14815SOL    HW145886   5.198   5.992   1.310  0.0581  0.3313 -0.6937
14815SOL    HW245887   5.259   5.968   1.173  0.9028 -0.6649 -0.1567
14816SOL     OW45888   4.295   5.058   1.418  0.2103  0.1968  0.4000
14816SOL    HW145889   4.237   5.134   1.430 -0.8239 -0.7111  1.3603
14816SOL    HW245890   4.235   4.984   1.407  1.2004 -0.5985  0.2155
14817SOL     OW45891   5.066   2.370  12.425 -0.2183 -0.5860 -0.0007
14817SOL    HW145892   5.022   2.295  12.386 -1.2530  0.2473 -0.4985
14817SOL    HW245893   5.118   2.334  12.496 -1.5828 -1.6529  0.4957
14818SOL     OW45894   6.671   4.661   0.001 -1.1655 -0.0568 -0.5737
14818SOL    HW145895   6.708   4.610   0.074  0.3250  1.1078 -0.4574
14818SOL    HW245896   6.623   4.732   0.043  0.3742  1.0938 -0.6505
14819SOL     OW45897   3.366   4.937   0.631  0.0106  0.0024 -0.3259
14819SOL    HW145898   3.454   4.909   0.653  0.2256  1.2184  0.4407
14819SOL    HW245899   3.314   4.920   0.710 -0.0433  0.9116 -0.1534
14820SOL     OW45900   6.693   3.967  11.215 -0.1499  0.1990 -0.0846
14820SOL    HW145901   6.731   3.967  11.303 -2.8139 -2.1262  1.2536
14820SOL    HW245902   6.613   3.914  11.224 -0.8008  0.2817 -3.8187
14821SOL     OW45903   4.805   5.639   0.008 -0.1944  0.1768 -0.4125
14821SOL    HW145904   4.865   5.567  -0.012 -0.6190 -0.6042  0.9615
14821SOL    HW245905   4.732   5.597   0.055 -0.6632  1.4400  0.0446
14822SOL     OW45906   5.772   4.536   0.544 -0.0993  0.0146  0.2690
14822SOL    HW145907   5.707   4.606   0.534 -0.1249 -0.2005 -1.3013
14822SOL    HW245908   5.722   4.463   0.581 -0.3070  0.4794  0.9252
14823SOL     OW45909   3.617   4.278  11.238  0.4294 -0.1228 -0.5907
14823SOL    HW145910   3.696   4.226  11.221 -0.4985 -2.5120  1.7084
14823SOL    HW245911   3.640   4.332  11.313  0.8644  1.7010 -1.9770
14824SOL     OW45912   3.634   5.057  12.380 -0.4965  0.0512 -0.3397
14824SOL    HW145913   3.689   5.128  12.414 -1.8707  0.8934  0.2059
14824SOL    HW245914   3.567   5.101  12.328 -1.0621 -0.8775 -0.4261
14825SOL     OW45915   6.002   2.996   0.251 -0.1022 -0.0769  0.3064
14825SOL    HW145916   5.942   2.939   0.300 -0.7823 -0.2002 -0.6514
14825SOL    HW245917   6.051   3.043   0.319  1.5345 -2.8395  1.2088
14826SOL     OW45918   3.588   4.409   3.093 -0.0407  0.1786 -0.5503
14826SOL    HW145919   3.674   4.372   3.112 -0.5504 -0.7942 -0.0662
14826SOL    HW245920   3.561   4.453   3.174 -0.5812 -0.7187 -0.2212
14827SOL     OW45921   3.449   4.563   4.129  0.2042  0.4277  0.3331
14827SOL    HW145922   3.385   4.619   4.171  0.0678  1.4474 -1.1598
14827SOL    HW245923   3.418   4.474   4.146 -2.2611  0.8833 -1.2424
14828SOL     OW45924   4.100   5.122   2.351 -0.0610  0.5388  0.2966
14828SOL    HW145925   4.109   5.217   2.358 -0.8797  0.5740  1.0644
14828SOL    HW245926   4.014   5.109   2.312  1.1261  0.1374 -2.3720
14829SOL     OW45927   5.177   5.323   3.840 -0.1397  0.0506 -0.0097
14829SOL    HW145928   5.134   5.326   3.925 -1.6646 -1.1605 -0.6841
14829SOL    HW245929   5.109   5.349   3.778  0.2204 -1.3837 -1.0629
14830SOL     OW45930   5.687   5.102   2.568  0.2524 -0.1866  0.0325
14830SOL    HW145931   5.670   5.195   2.554 -1.3881 -0.6824 -1.7586
14830SOL    HW245932   5.781   5.096   2.586 -0.0394  2.0595  3.1523
14831SOL     OW45933   6.338   3.605   1.574 -0.4943 -0.2991  0.0032
14831SOL    HW145934   6.353   3.601   1.479  0.1209  2.1569 -0.0592
14831SOL    HW245935   6.426   3.614   1.612 -0.8683  3.0504  0.4144
14832SOL     OW45936   3.960   4.859   3.076 -0.0267 -0.1122 -0.1515
14832SOL    HW145937   3.876   4.815   3.091  0.3752 -1.4186 -1.5814
14832SOL    HW245938   4.001   4.862   3.163  0.1520 -3.0798 -0.0273
14833SOL     OW45939   4.994   4.091   1.892 -0.3560  0.2080 -0.3600
14833SOL    HW145940   4.929   4.108   1.824  0.9380  0.9570 -1.4636
14833SOL    HW245941   5.026   4.003   1.873 -2.1926 -0.8818  1.2213
14834SOL     OW45942   3.708   5.338  12.461  0.1596  0.1779  0.1364
14834SOL    HW145943   3.748   5.372  12.382  1.3285 -0.3392  0.4872
14834SOL    HW245944   3.742   5.394  12.531  1.7743 -1.3723  0.6676
14835SOL     OW45945   5.579   3.586   1.301  0.7962  0.0726 -0.1683
14835SOL    HW145946   5.624   3.632   1.371 -0.7815 -0.3249  1.1705
14835SOL    HW245947   5.593   3.640   1.223 -1.1779  3.0129  1.3524
14836SOL     OW45948   5.195   5.432   1.648  0.3893  0.2222  0.2267
14836SOL    HW145949   5.178   5.385   1.729  1.8393  0.0677  0.4658
14836SOL    HW245950   5.224   5.364   1.587  0.8235  0.5597  0.0551
14837SOL     OW45951   3.534   4.434   1.781 -0.5160 -0.2172 -0.2648
14837SOL    HW145952   3.569   4.482   1.705 -2.3724 -0.7199 -1.5053
14837SOL    HW245953   3.506   4.503   1.841 -0.2823  0.2139 -0.6386
14838SOL     OW45954   5.489   4.724   1.162 -0.3281  0.2844  0.3792
14838SOL    HW145955   5.552   4.653   1.151  0.9424  1.2284  1.2917
14838SOL    HW245956   5.498   4.777   1.083 -1.0128 -0.3428 -0.1334
14839SOL     OW45957   3.876   3.228   1.571 -0.1486 -0.6363  0.3681
14839SOL    HW145958   3.785   3.216   1.597 -0.3108 -0.5035 -0.1316
14839SOL    HW245959   3.914   3.140   1.575  0.1177 -0.4833  2.0648
14840SOL     OW45960   5.870   6.518   1.731  0.0649  0.0982  0.2160
14840SOL    HW145961   5.880   6.457   1.657  1.8378 -0.6037  0.9809
14840SOL    HW245962   5.884   6.464   1.808 -2.0926  0.7550  1.1471
14841SOL     OW45963   6.650   4.305   0.910  0.2989  0.4883 -0.4021
14841SOL    HW145964   6.676   4.247   0.983 -0.5897  1.4502  0.7152
14841SOL    HW245965   6.555   4.296   0.905  0.0311  2.4055  0.3333
14842SOL     OW45966   5.140   4.324   2.020 -0.2272 -0.1297  0.1283
14842SOL    HW145967   5.191   4.254   2.062  0.5589  0.3169 -0.0531
14842SOL    HW245968   5.076   4.277   1.967 -0.1623 -0.7104  0.5459
14843SOL     OW45969   5.101   3.450   4.279  0.3493 -0.2878  0.0010
14843SOL    HW145970   5.056   3.531   4.254 -0.6579 -0.4532  1.1587
14843SOL    HW245971   5.168   3.479   4.342  0.7951 -0.2304 -0.4915
14844SOL     OW45972   4.105   4.130   3.057  0.1442  0.1671  0.1468
14844SOL    HW145973   4.175   4.091   3.005 -0.8124  0.5178 -1.5204
14844SOL    HW245974   4.149   4.180   3.125  1.4281 -2.0950  1.0853
14845SOL     OW45975   5.830   6.173   1.792  0.5455 -0.8814 -0.2908
14845SOL    HW145976   5.815   6.107   1.725 -0.2143 -0.6707 -0.3285
14845SOL    HW245977   5.800   6.133   1.874  0.0505 -0.5785 -0.3188
14846SOL     OW45978   3.402   4.669   2.961  0.0250 -0.2024  0.2626
14846SOL    HW145979   3.392   4.574   2.954  0.8618 -0.3077  0.4765
14846SOL    HW245980   3.419   4.684   3.054 -3.9664  0.5335  1.0644
14847SOL     OW45981   6.087   3.318   2.302 -0.2586 -0.2446 -0.3922
14847SOL    HW145982   6.168   3.313   2.252  0.2289  0.7549  0.2579
14847SOL    HW245983   6.112   3.362   2.384 -1.7030  1.3472 -0.7532
14848SOL     OW45984   4.628   5.537   1.301 -0.5363 -0.0240 -0.3176
14848SOL    HW145985   4.644   5.451   1.340 -0.5625  0.0226 -0.2033
14848SOL    HW245986   4.541   5.562   1.333 -0.1817  0.4121  0.3189
14849SOL     OW45987   3.328   4.969   1.999 -0.0592  0.2486 -0.3278
14849SOL    HW145988   3.284   5.039   2.046 -0.1937  0.6845 -1.0913
14849SOL    HW245989   3.257   4.915   1.964  0.0308 -0.8315  1.0332
14850SOL     OW45990   5.283   5.539   2.063 -0.6549  0.2876  0.2449
14850SOL    HW145991   5.247   5.615   2.018 -2.6091  0.6978  2.3249
14850SOL    HW245992   5.377   5.554   2.064 -0.7257  1.2527 -1.7882
14851SOL     OW45993   3.886   4.096   3.302 -0.4058  0.0013 -0.5663
14851SOL    HW145994   3.977   4.090   3.330 -0.4437 -0.1496 -0.4751
14851SOL    HW245995   3.849   4.010   3.322 -0.1511 -0.4931 -2.0681
14852SOL     OW45996   3.586   2.824   1.772  0.1187 -0.2275 -0.6592
14852SOL    HW145997   3.503   2.864   1.795  1.4023  2.4532 -0.2399
14852SOL    HW245998   3.651   2.871   1.825  2.1657 -0.3549 -2.8591
14853SOL     OW45999   4.214   4.544   3.114 -0.0854 -0.2413  0.5199
14853SOL    HW146000   4.241   4.475   3.175 -0.1586 -0.5772  0.1790
14853SOL    HW246001   4.121   4.526   3.098  0.1096 -0.6098 -0.2650
14854SOL     OW46002   4.158   4.920   1.652  0.4847  0.3111  0.0226
14854SOL    HW146003   4.190   4.866   1.580  4.2329  0.3535  1.4473
14854SOL    HW246004   4.168   4.865   1.730 -1.3101  1.0508  0.8311
14855SOL     OW46005   4.898   5.697   2.589 -0.4871  0.1442 -0.0955
14855SOL    HW146006   4.910   5.754   2.513  0.9266 -1.0930 -0.8526
14855SOL    HW246007   4.836   5.630   2.559 -0.1020 -0.2176 -0.0787
14856SOL     OW46008   5.187   5.339   1.922 -0.2886  0.2192 -0.2517
14856SOL    HW146009   5.219   5.409   1.978 -0.8811  0.7354 -0.5498
14856SOL    HW246010   5.260   5.276   1.918  0.2306  0.7928  0.0505
14857SOL     OW46011   5.930   7.115   3.200 -0.1917  0.2822 -0.0525
14857SOL    HW146012   5.990   7.040   3.195 -2.3450 -1.4726 -0.9971
14857SOL    HW246013   5.948   7.154   3.286  2.2252 -0.1653 -0.2754
14858SOL     OW46014   4.252   5.531   2.137  0.1040  0.5760  0.0486
14858SOL    HW146015   4.324   5.593   2.125 -0.2498  0.9593 -0.1003
14858SOL    HW246016   4.234   5.498   2.049  2.6882 -2.4942  0.4785
14859SOL     OW46017   5.660   4.528   1.052 -0.1724 -0.2120 -0.1181
14859SOL    HW146018   5.753   4.511   1.064 -0.2202 -0.6814 -0.3856
14859SOL    HW246019   5.637   4.480   0.973 -0.4472  0.6363 -0.5659
14860SOL     OW46020   3.850   5.259   1.454 -0.0807  0.4433 -0.5350
14860SOL    HW146021   3.823   5.196   1.387  0.7711 -1.7201  1.0375
14860SOL    HW246022   3.771   5.310   1.471  0.1342  2.4935 -4.4880
14861SOL     OW46023   3.783   5.077   3.714  0.1902  0.1502 -0.0963
14861SOL    HW146024   3.809   4.984   3.711 -0.3929 -0.0817  1.1981
14861SOL    HW246025   3.747   5.088   3.802 -0.0362  1.5414 -0.3513
14862SOL     OW46026   4.970   3.298   6.735 -0.1544  0.8389  0.4797
14862SOL    HW146027   4.995   3.385   6.768  1.8910  0.7624 -0.6821
14862SOL    HW246028   4.948   3.248   6.814  0.6437  1.8257  1.3686
14863SOL     OW46029   7.150   4.108   3.191 -0.0984  0.1885 -0.2903
14863SOL    HW146030   7.127   4.040   3.255  0.6594  0.3542  0.1733
14863SOL    HW246031   7.226   4.151   3.229  0.6387  0.0076 -1.5285
14864SOL     OW46032   4.871   3.951   2.332  0.5342 -0.6157  0.3900
14864SOL    HW146033   4.910   3.935   2.246  1.5626  0.7525  0.5696
14864SOL    HW246034   4.826   4.035   2.323  0.2461 -0.6887  1.0645
14865SOL     OW46035   4.642   5.706   3.392 -0.1511  0.6011 -0.4261
14865SOL    HW146036   4.733   5.733   3.399 -0.0375 -0.1933  2.4461
14865SOL    HW246037   4.636   5.628   3.447 -2.3980  0.1436 -1.2155
14866SOL     OW46038   3.617   3.185   1.610 -0.4863 -0.1874 -0.8078
14866SOL    HW146039   3.578   3.104   1.579  0.4747 -1.1600  0.4203
14866SOL    HW246040   3.562   3.212   1.684  0.6957 -1.2193  0.5156
14867SOL     OW46041   5.923   5.530   1.765  0.4926 -0.0029  0.1190
14867SOL    HW146042   6.004   5.577   1.748 -0.4971  1.9705  0.5435
14867SOL    HW246043   5.950   5.449   1.808  2.1693  1.1235  1.2699
14868SOL     OW46044   6.032   5.183   2.379 -0.2617 -0.2985 -0.2072
14868SOL    HW146045   5.955   5.239   2.393 -0.5478 -0.6697 -0.2848
14868SOL    HW246046   6.051   5.193   2.285  0.4685  0.6632  0.0329
14869SOL     OW46047   4.297   4.272   2.897 -0.3363  0.1734  0.1855
14869SOL    HW146048   4.343   4.354   2.915 -0.6108  0.1447  1.0483
14869SOL    HW246049   4.206   4.290   2.920  0.3005 -1.8893  5.7736
14870SOL     OW46050   4.583   5.256   1.400 -0.1667 -0.1149  0.4715
14870SOL    HW146051   4.660   5.277   1.453  0.4812  0.4427 -0.6456
14870SOL    HW246052   4.511   5.250   1.463  0.4355  1.2986  1.3407
14871SOL     OW46053   5.582   6.525   3.090 -0.1425 -0.2634 -0.3557
14871SOL    HW146054   5.576   6.584   3.165 -1.5534  2.1794 -2.2249
14871SOL    HW246055   5.514   6.459   3.105 -0.9534  0.6624  0.1531
14872SOL     OW46056   4.958   3.230   4.531  0.1799 -0.2808 -0.2588
14872SOL    HW146057   4.921   3.279   4.604  0.7436 -0.4888  0.1668
14872SOL    HW246058   4.881   3.194   4.485 -0.1832  0.0335  0.0974
14873SOL     OW46059   5.055   5.165   4.737  0.1914  0.1973 -0.1942
14873SOL    HW146060   5.151   5.163   4.731  0.1344 -0.0454 -1.0851
14873SOL    HW246061   5.038   5.216   4.816  1.0470  1.0760 -0.5472
14874SOL     OW46062   4.712   2.148   1.446  0.3232 -0.0389 -1.0114
14874SOL    HW146063   4.634   2.136   1.392 -0.8446  0.1331  0.5899
14874SOL    HW246064   4.768   2.207   1.394 -0.5331 -0.2676 -2.2374
14875SOL     OW46065   5.591   5.652   2.102 -0.3380  0.2954  0.1547
14875SOL    HW146066   5.632   5.691   2.180  0.1688 -0.7031  0.4169
14875SOL    HW246067   5.647   5.679   2.030  0.3109 -0.3350  0.4012
14876SOL     OW46068   3.551   7.043   1.496  0.1421  0.5954 -0.5820
14876SOL    HW146069   3.497   7.025   1.419  1.4605 -1.9147 -1.0326
14876SOL    HW246070   3.640   7.049   1.461  0.5890  0.9075  0.5833
14877SOL     OW46071   2.762   4.426   3.772  0.0548 -0.6344 -0.1796
14877SOL    HW146072   2.794   4.438   3.861 -2.6315 -1.0265  0.9649
14877SOL    HW246073   2.835   4.386   3.725  2.2968  1.5965  1.2025
14878SOL     OW46074   5.777   6.611   3.788 -0.0064  0.5170 -0.1545
14878SOL    HW146075   5.838   6.537   3.787 -0.6382 -0.0145 -0.2203
14878SOL    HW246076   5.712   6.587   3.853 -0.5867  0.7071 -0.6552
14879SOL     OW46077   3.349   4.361   2.957 -0.5958 -0.4643 -0.8214
14879SOL    HW146078   3.425   4.360   3.015  1.2272  0.2427 -3.0630
14879SOL    HW246079   3.343   4.271   2.924 -1.2585 -0.7159 -0.0503
14880SOL     OW46080   5.891   2.640   0.869  0.1211 -0.2499  0.4094
14880SOL    HW146081   5.826   2.599   0.926 -0.3939 -0.0497 -0.0166
14880SOL    HW246082   5.953   2.681   0.928 -0.1157 -0.4848  0.8266
14881SOL     OW46083   5.715   4.397   3.347  0.5971 -0.6479  0.1667
14881SOL    HW146084   5.683   4.327   3.404 -0.0687 -1.3018 -0.9792
14881SOL    HW246085   5.708   4.476   3.400  0.8655 -1.3677  1.3066
14882SOL     OW46086   4.756   6.216   2.792 -0.3092  0.1800  0.1578
14882SOL    HW146087   4.723   6.183   2.875  0.1180 -0.4181  0.0982
14882SOL    HW246088   4.691   6.189   2.728  0.9152 -2.2140 -0.1648
14883SOL     OW46089   2.501   4.340   1.951 -0.0829  0.2996  0.0898
14883SOL    HW146090   2.594   4.360   1.947 -0.2795  1.2773  0.3109
14883SOL    HW246091   2.497   4.246   1.971  0.8482  0.0796 -0.7093
14884SOL     OW46092   5.292   4.257   3.509 -0.2218  0.3492  0.2313
14884SOL    HW146093   5.257   4.284   3.594 -0.9314 -1.9736  0.7426
14884SOL    HW246094   5.333   4.336   3.474  1.7024  0.9958  3.5262
14885SOL     OW46095   4.940   4.385   2.642  0.0891 -0.0406 -0.0735
14885SOL    HW146096   4.932   4.348   2.730  0.1601  0.5491  0.1845
14885SOL    HW246097   4.910   4.476   2.652 -0.7480 -0.2232 -0.8403
14886SOL     OW46098   5.013   4.273   2.914  0.2607 -0.6714 -0.6604
14886SOL    HW146099   5.000   4.212   2.986 -0.2474  0.8553  0.6189
14886SOL    HW246100   5.063   4.345   2.953 -0.7620  0.5903 -1.5747
14887SOL     OW46101   5.397   4.640   2.775 -0.3773 -0.0210 -0.3433
14887SOL    HW146102   5.328   4.667   2.714 -0.8371 -0.8610 -0.2079
14887SOL    HW246103   5.476   4.636   2.722 -0.4435  0.8598 -0.5214
14888SOL     OW46104   3.674   7.577   3.616  0.2480 -0.7266 -0.5800
14888SOL    HW146105   3.764   7.562   3.589  0.7560 -0.0568  0.7061
14888SOL    HW246106   3.657   7.510   3.682  1.2041  1.5877  2.2049
14889SOL     OW46107   5.824   4.421   5.388 -0.0838  0.0589 -0.2584
14889SOL    HW146108   5.805   4.515   5.393  0.3896  0.1458 -0.0352
14889SOL    HW246109   5.782   4.392   5.307  1.1521  0.8131 -1.2201
14890SOL     OW46110   4.368   3.620   2.711 -0.1157 -0.2232  0.4075
14890SOL    HW146111   4.395   3.601   2.801  0.2973 -0.8405  0.1601
14890SOL    HW246112   4.341   3.536   2.675 -1.5791  0.2362  0.3637
14891SOL     OW46113   5.790   4.762   2.213  0.7554 -0.2606  0.4813
14891SOL    HW146114   5.865   4.763   2.273  1.5648  0.4505 -0.5003
14891SOL    HW246115   5.830   4.757   2.126 -0.3991 -2.7261  0.0005
14892SOL     OW46116   5.497   4.837   1.950  0.2355  0.0748 -0.6457
14892SOL    HW146117   5.476   4.917   1.998 -0.3454 -1.1199  1.2285
14892SOL    HW246118   5.481   4.767   2.013  2.1647 -1.4494 -1.7242
14893SOL     OW46119   5.255   3.307   2.608  0.0482 -0.5180  0.1603
14893SOL    HW146120   5.260   3.226   2.557 -2.1789 -0.2351 -0.6476
14893SOL    HW246121   5.344   3.342   2.607  0.8809 -2.5247 -0.1681
14894SOL     OW46122   5.170   4.432   1.454  0.4599  0.1430 -0.1277
14894SOL    HW146123   5.118   4.512   1.446 -0.0343 -0.1466  0.1862
14894SOL    HW246124   5.204   4.418   1.366 -0.0301  0.3069 -0.3488
14895SOL     OW46125   3.559   6.483   3.475 -0.1680 -0.4231  0.1691
14895SOL    HW146126   3.553   6.390   3.457 -0.0263 -0.1779 -1.2239
14895SOL    HW246127   3.646   6.508   3.445 -0.3147  0.2170  0.2512
14896SOL     OW46128   4.634   5.540   3.166 -0.3671 -0.6445  0.0512
14896SOL    HW146129   4.625   5.599   3.240  0.4096 -0.6902  0.1933
14896SOL    HW246130   4.545   5.521   3.139 -0.6202  0.7440 -0.1270
14897SOL     OW46131   4.025   4.882   3.349 -0.1211  0.1117  0.6401
14897SOL    HW146132   4.046   4.972   3.376 -0.6888 -0.1401  1.9783
14897SOL    HW246133   4.085   4.827   3.399 -2.3426 -0.4664  2.8251
14898SOL     OW46134   4.696   4.574   2.775 -0.2920  0.0787 -0.0907
14898SOL    HW146135   4.662   4.526   2.699  1.7962 -1.8185  0.0631
14898SOL    HW246136   4.741   4.649   2.737 -0.3673 -0.1403 -0.6293
14899SOL     OW46137   4.892   2.931   1.593  0.1003 -0.3869 -0.1463
14899SOL    HW146138   4.807   2.962   1.623  0.8518  1.9084 -0.1720
14899SOL    HW246139   4.879   2.838   1.575 -1.4239 -1.0280  3.4431
14900SOL     OW46140   4.329   4.028   2.208  0.1518 -0.1988 -0.1061
14900SOL    HW146141   4.341   4.064   2.296 -6.0064 -0.3912  1.2803
14900SOL    HW246142   4.382   3.948   2.207  0.7497 -0.0087  3.3294
14901SOL     OW46143   6.001   4.107   2.008  0.1779  0.3703  0.0745
14901SOL    HW146144   6.018   4.154   1.927 -0.0532  0.6158  0.1677
14901SOL    HW246145   5.905   4.108   2.017  0.2039  0.3827  0.3726
14902SOL     OW46146   4.802   4.121   2.134 -0.0860  0.0625  0.0343
14902SOL    HW146147   4.873   4.167   2.088  0.6563 -0.8666  0.2000
14902SOL    HW246148   4.784   4.045   2.078 -0.8356  0.2032  0.0836
14903SOL     OW46149   5.208   5.079   1.650  0.0403  0.1766 -0.3488
14903SOL    HW146150   5.134   5.030   1.614  0.1930 -0.6448  0.4179
14903SOL    HW246151   5.249   5.018   1.711  0.4736  1.1420  0.3351
14904SOL     OW46152   3.656   4.079   2.491  0.6474 -0.2752  0.2743
14904SOL    HW146153   3.746   4.110   2.504  0.0821  1.9390 -0.6674
14904SOL    HW246154   3.665   3.997   2.442  2.1333  1.6058 -2.8668
14905SOL     OW46155   6.166   3.660   2.334 -0.6936 -0.0804  0.8157
14905SOL    HW146156   6.190   3.578   2.377  0.8996 -0.4242 -0.6436
14905SOL    HW246157   6.148   3.635   2.243  0.3999  1.2593  0.2002
14906SOL     OW46158   3.894   1.623   2.515  0.3262 -0.2989  0.2959
14906SOL    HW146159   3.983   1.643   2.546  0.6811 -1.9435  0.4112
14906SOL    HW246160   3.906   1.551   2.453 -0.6588  1.2149 -1.7716
14907SOL     OW46161   4.366   5.120   4.543  0.0775 -0.2588 -0.1320
14907SOL    HW146162   4.413   5.123   4.460 -1.3290 -0.2118 -0.9501
14907SOL    HW246163   4.297   5.055   4.530 -0.0779 -0.3582  1.0543
14908SOL     OW46164   4.961   4.940   2.971 -0.3573 -0.1830 -0.3056
14908SOL    HW146165   4.890   4.902   3.023 -1.1814 -0.4594 -1.5716
14908SOL    HW246166   4.963   5.032   2.997  0.0428 -0.5498  1.0432
14909SOL     OW46167   5.752   6.323   4.527  0.1880  0.9649 -0.1190
14909SOL    HW146168   5.727   6.284   4.444  1.1167 -1.2211  0.5383
14909SOL    HW246169   5.721   6.413   4.523 -1.9060  0.2367 -1.8562
14910SOL     OW46170   3.719   5.739   4.445 -0.0633 -0.3954 -0.5221
14910SOL    HW146171   3.724   5.701   4.357 -1.3042 -1.4770 -0.1439
14910SOL    HW246172   3.788   5.694   4.495  0.1279 -0.3383 -0.7326
14911SOL     OW46173   6.320   4.072   1.902 -0.5074 -0.3076  0.3288
14911SOL    HW146174   6.282   4.048   1.817 -0.6111 -1.2421  0.6272
14911SOL    HW246175   6.398   4.017   1.910 -0.3805 -0.0707  0.7470
14912SOL     OW46176   3.641   6.208   2.819  0.1598  0.5358  0.5082
14912SOL    HW146177   3.666   6.156   2.743 -1.1301  1.0051 -0.2640
14912SOL    HW246178   3.613   6.292   2.783 -1.8932  0.2656  1.3253
14913SOL     OW46179   4.863   4.551   3.123  0.3330  0.5112  0.3386
14913SOL    HW146180   4.955   4.564   3.099  1.1121 -0.1814  2.7049
14913SOL    HW246181   4.855   4.587   3.211 -1.3460 -0.5928  0.6952
14914SOL     OW46182   5.241   6.219   3.309 -0.0977 -0.6713  0.0409
14914SOL    HW146183   5.266   6.196   3.399  0.6401  0.2922  0.1051
14914SOL    HW246184   5.227   6.135   3.265 -1.9681 -1.1623  1.4460
14915SOL     OW46185   4.467   4.383   1.349  0.0354  0.6205  0.1095
14915SOL    HW146186   4.516   4.444   1.294  1.0551 -0.9717 -0.8311
14915SOL    HW246187   4.481   4.297   1.309 -4.9677  0.1462 -1.3659
14916SOL     OW46188   4.215   4.280   3.255  0.9477 -0.4725 -0.6721
14916SOL    HW146189   4.276   4.333   3.306  1.6857 -2.1564  0.2739
14916SOL    HW246190   4.148   4.253   3.318 -0.1704  0.4010 -1.4432
14917SOL     OW46191   4.996   5.640   1.769  0.7783 -0.3230  0.2069
14917SOL    HW146192   5.028   5.566   1.718 -0.4525 -0.3254 -0.5785
14917SOL    HW246193   4.945   5.601   1.840 -2.0151 -0.2642 -1.6199
14918SOL     OW46194   4.879   5.984   3.075 -0.3601  0.1644 -0.0261
14918SOL    HW146195   4.952   5.925   3.059 -0.7744 -0.8483  1.5678
14918SOL    HW246196   4.803   5.940   3.036 -0.4167  0.4208 -0.2147
14919SOL     OW46197   3.999   4.334   2.862  0.1493 -0.5426 -0.1145
14919SOL    HW146198   3.970   4.412   2.909 -0.8071 -0.0426 -1.4688
14919SOL    HW246199   3.932   4.268   2.881  0.8033 -0.9746  0.7894
14920SOL     OW46200   3.544   3.156   2.165 -0.4251 -0.5216 -0.1552
14920SOL    HW146201   3.516   3.080   2.216 -0.4667 -0.4305 -0.0423
14920SOL    HW246202   3.493   3.229   2.201 -0.1719 -0.3864 -0.0658
14921SOL     OW46203   4.338   4.460   3.406 -0.3699  0.1530 -0.2425
14921SOL    HW146204   4.405   4.529   3.401 -0.7940  0.6913  1.0383
14921SOL    HW246205   4.284   4.484   3.482 -0.7991 -1.3574 -0.0275
14922SOL     OW46206   5.984   5.744   2.591  0.1066 -0.4756 -0.0813
14922SOL    HW146207   5.929   5.667   2.573  0.1767 -0.3826 -0.7244
14922SOL    HW246208   6.068   5.707   2.618  0.0451 -0.6296 -0.0982
14923SOL     OW46209   6.089   6.683   2.547  0.1674  0.9351  0.2285
14923SOL    HW146210   5.995   6.679   2.566  0.1953  0.9876  0.3732
14923SOL    HW246211   6.093   6.687   2.451  0.0815 -0.9454  0.1042
14924SOL     OW46212   5.256   4.848   1.807  0.0308 -0.0346 -0.5836
14924SOL    HW146213   5.230   4.756   1.801  0.5545 -0.0782 -2.7056
14924SOL    HW246214   5.350   4.845   1.825  0.1384  0.0846 -1.1292
14925SOL     OW46215   6.940   4.536   1.558 -0.4401 -0.1535  0.0138
14925SOL    HW146216   6.867   4.517   1.499 -1.4328  1.5742  0.6173
14925SOL    HW246217   6.986   4.609   1.518 -0.5837  0.4392  0.8929
14926SOL     OW46218   2.626   4.181   3.636  0.3262  0.2648  1.1678
14926SOL    HW146219   2.668   4.095   3.637 -2.3735 -1.1455  1.3423
14926SOL    HW246220   2.664   4.227   3.711  1.8399 -0.7080  1.0439
14927SOL     OW46221   2.596   4.482   3.083  0.3997 -0.3321  0.4653
14927SOL    HW146222   2.645   4.461   3.003 -1.3985  0.8082 -1.0062
14927SOL    HW246223   2.662   4.480   3.153  2.3299  0.1377 -1.2686
14928SOL     OW46224   5.705   4.548   3.849  0.0011 -0.7067 -0.6588
14928SOL    HW146225   5.656   4.467   3.864  1.9102 -1.3716  2.9504
14928SOL    HW246226   5.779   4.522   3.794 -1.3777 -0.4893 -2.7575
14929SOL     OW46227   3.223   3.709   2.779 -0.7044 -0.0582  0.1100
14929SOL    HW146228   3.288   3.779   2.770  1.0532 -1.3831  1.6430
14929SOL    HW246229   3.191   3.716   2.869  0.1880 -1.7082  0.6049
14930SOL     OW46230   4.547   5.823   2.627 -0.5709 -0.2362 -0.3094
14930SOL    HW146231   4.624   5.769   2.607 -0.3471  0.0873 -0.3336
14930SOL    HW246232   4.527   5.802   2.718  2.0703  2.6799  1.1223
14931SOL     OW46233   3.729   5.497   2.485  0.5723 -0.0747 -0.0364
14931SOL    HW146234   3.783   5.522   2.411 -1.2068 -0.2458 -1.4726
14931SOL    HW246235   3.762   5.548   2.559  1.1926  1.5184 -1.3786
14932SOL     OW46236   3.525   5.847   3.000  0.3242  0.4469 -0.1851
14932SOL    HW146237   3.482   5.870   2.918  1.2968  1.0713 -0.5320
14932SOL    HW246238   3.517   5.752   3.006 -0.1918  0.4512 -0.7428
14933SOL     OW46239   5.830   6.559   2.695  0.3260  0.6989 -0.0453
14933SOL    HW146240   5.899   6.604   2.744  0.9965  0.0680 -0.3935
14933SOL    HW246241   5.846   6.466   2.710 -0.2292  0.5332 -0.4302
14934SOL     OW46242   4.232   4.520   3.674  0.2606 -0.0033 -0.1730
14934SOL    HW146243   4.294   4.455   3.706 -0.1211  0.7231  2.2121
14934SOL    HW246244   4.148   4.493   3.711 -0.1720  1.0607 -0.3404
14935SOL     OW46245   4.102   5.254   1.430  0.0806  0.0221 -0.5285
14935SOL    HW146246   4.013   5.257   1.464  0.8252 -0.4825  1.6275
14935SOL    HW246247   4.097   5.299   1.346 -1.9875  0.9163  0.0057
14936SOL     OW46248   5.596   4.165   2.902  0.1549  0.2403 -0.0312
14936SOL    HW146249   5.667   4.229   2.894  1.0336 -0.7803 -0.8568
14936SOL    HW246250   5.604   4.131   2.991  1.2869 -0.4543 -0.3602
14937SOL     OW46251   6.390   4.849   2.326  0.2682  0.5223 -0.2634
14937SOL    HW146252   6.349   4.835   2.411  0.9023  1.0438  0.1335
14937SOL    HW246253   6.477   4.882   2.346  0.4663  0.5478 -1.1162
14938SOL     OW46254   4.064   4.654   2.775  0.2194  0.2303  0.1620
14938SOL    HW146255   4.039   4.606   2.854  1.3236 -0.2693  0.2282
14938SOL    HW246256   4.033   4.743   2.790 -0.6944 -0.1535  0.6098
14939SOL     OW46257   4.071   3.737   2.674 -0.1462  0.7848 -0.5660
14939SOL    HW146258   4.083   3.678   2.600 -2.3275  0.5820 -0.8189
14939SOL    HW246259   4.016   3.688   2.735 -1.0264  2.1002 -0.2548
14940SOL     OW46260   1.179   3.890   2.048  0.0606 -0.0738  0.1393
14940SOL    HW146261   1.232   3.897   2.128 -0.7967 -1.2466  0.8365
14940SOL    HW246262   1.182   3.796   2.026 -0.5215  0.0889 -0.6497
14941SOL     OW46263   4.965   6.286   2.632  0.0681  0.0439  0.5512
14941SOL    HW146264   4.895   6.266   2.694 -0.8038  2.1052  0.3324
14941SOL    HW246265   4.920   6.299   2.549  1.1323 -1.8582 -0.3826
14942SOL     OW46266   4.662   5.270   2.987  0.2495 -0.8740  0.6423
14942SOL    HW146267   4.569   5.289   2.979  0.7225  2.3667  1.4631
14942SOL    HW246268   4.675   5.250   3.080  0.6968  1.2081  1.0622
14943SOL     OW46269   4.791   3.711   2.457  0.3755 -1.0140  0.0771
14943SOL    HW146270   4.817   3.794   2.418  1.7989 -1.6824 -0.4687
14943SOL    HW246271   4.715   3.683   2.407  0.9770 -0.8951 -0.9304
14944SOL     OW46272   3.625   4.569   3.652  0.3518 -0.0636 -0.3084
14944SOL    HW146273   3.705   4.609   3.618 -0.7439  2.9194  0.3222
14944SOL    HW246274   3.652   4.530   3.735  1.3287  0.1766 -0.4909
14945SOL     OW46275   3.690   4.379   2.710 -0.0062 -0.3793 -0.6167
14945SOL    HW146276   3.775   4.338   2.693  0.7439  0.4267  0.9662
14945SOL    HW246277   3.662   4.343   2.794 -1.0842 -0.3717 -0.9539
14946SOL     OW46278   4.277   5.211   3.453  0.5211  0.1612  0.1532
14946SOL    HW146279   4.318   5.179   3.534 -1.0251  0.0446  0.9282
14946SOL    HW246280   4.183   5.193   3.465  0.2936 -0.1339 -1.8103
14947SOL     OW46281   4.345   4.173   2.473  0.4576  0.3992  0.2282
14947SOL    HW146282   4.432   4.196   2.505  0.6721  0.3357 -0.2960
14947SOL    HW246283   4.292   4.166   2.552  1.4982 -2.0215  0.8102
14948SOL     OW46284   6.521   4.817   4.478  0.3821 -0.1466  0.4996
14948SOL    HW146285   6.534   4.723   4.463 -1.0189  0.0001 -2.0109
14948SOL    HW246286   6.471   4.821   4.560 -2.3718 -1.8535 -0.9510
14949SOL     OW46287   3.191   4.529   3.819 -0.0262 -0.4412  0.1202
14949SOL    HW146288   3.252   4.459   3.846  0.7206  0.0305 -0.3020
14949SOL    HW246289   3.161   4.567   3.901 -0.1779 -1.0345  0.3509
14950SOL     OW46290   3.621   4.030   3.569 -0.1019 -0.0737  0.0756
14950SOL    HW146291   3.573   3.987   3.499  0.4977 -0.1881 -0.2725
14950SOL    HW246292   3.604   4.123   3.557 -2.5498 -0.2341  1.6676
14951SOL     OW46293   5.276   4.508   2.419  0.1169  0.3518 -0.2535
14951SOL    HW146294   5.264   4.534   2.510 -1.8205 -2.8825  0.5674
14951SOL    HW246295   5.206   4.554   2.372  0.7950  1.6152 -0.0799
14952SOL     OW46296   4.536   3.888   2.573  0.4394 -0.1056  0.1684
14952SOL    HW146297   4.580   3.866   2.655  1.8310  1.3572 -0.1391
14952SOL    HW246298   4.600   3.865   2.505 -0.6107 -1.0944 -0.5234
14953SOL     OW46299   3.773   5.566   4.220 -0.1141 -0.1545 -1.0279
14953SOL    HW146300   3.836   5.634   4.199  1.4765 -1.5070 -0.8248
14953SOL    HW246301   3.760   5.518   4.138  0.3303 -0.8342 -0.7100
14954SOL     OW46302   4.392   4.541   2.324 -0.4289  0.5096 -0.3814
14954SOL    HW146303   4.400   4.490   2.244  1.3799 -2.3986  1.4447
14954SOL    HW246304   4.478   4.533   2.366 -1.7005  0.6445  2.5087
14955SOL     OW46305   6.065   3.672   3.126 -0.2187  0.0198 -0.0762
14955SOL    HW146306   6.065   3.652   3.220 -1.9544 -0.3012 -0.1179
14955SOL    HW246307   6.142   3.728   3.114  0.7458 -0.9317  1.3047
14956SOL     OW46308   6.696   4.880   1.591  0.4990  0.7203  0.5410
14956SOL    HW146309   6.719   4.904   1.501  0.7094 -2.2202 -0.2696
14956SOL    HW246310   6.609   4.918   1.604 -0.8843 -1.2857 -2.0350
14957SOL     OW46311   4.391   4.952   1.997 -0.2887 -0.1072 -0.3715
14957SOL    HW146312   4.320   4.902   1.957  0.4014 -2.4607  1.1395
14957SOL    HW246313   4.352   4.992   2.075 -0.3434 -0.0789 -0.4137
14958SOL     OW46314   2.585   4.023   1.576 -0.6846  0.1046  0.2332
14958SOL    HW146315   2.597   4.084   1.504  0.3338 -0.3319  0.0125
14958SOL    HW246316   2.649   4.050   1.642 -1.7728  0.6574  1.1101
14959SOL     OW46317   5.083   5.790   4.219  0.0417  0.5167 -0.2691
14959SOL    HW146318   4.997   5.812   4.183 -0.1953 -1.0446 -0.7363
14959SOL    HW246319   5.066   5.714   4.275  0.6953  1.8380  1.8291
14960SOL     OW46320   5.677   3.109   1.913 -0.1016  0.1969 -0.1537
14960SOL    HW146321   5.757   3.061   1.934 -0.8060 -0.6214  0.7256
14960SOL    HW246322   5.676   3.182   1.975 -1.1717 -1.0986  1.4456
14961SOL     OW46323   5.427   3.652   2.291 -0.1117 -0.1039  0.4022
14961SOL    HW146324   5.339   3.637   2.325 -0.5741 -0.9288 -1.0374
14961SOL    HW246325   5.480   3.673   2.367 -1.9001  2.1600  1.1207
14962SOL     OW46326   5.921   4.737   3.802  0.3332 -0.5430  0.2666
14962SOL    HW146327   5.916   4.821   3.755 -0.3285 -0.3882  0.6057
14962SOL    HW246328   5.857   4.745   3.872 -0.7079 -1.8447 -0.5028
14963SOL     OW46329   5.048   4.643   2.323 -0.4932 -0.6960  0.4324
14963SOL    HW146330   4.996   4.581   2.272  0.2269 -0.4133 -0.6680
14963SOL    HW246331   4.988   4.674   2.392 -0.8801 -2.5266  0.9604
14964SOL     OW46332   5.579   6.325   3.469  0.6712  0.2841  0.4067
14964SOL    HW146333   5.572   6.421   3.467 -0.4543  0.1974 -0.4609
14964SOL    HW246334   5.539   6.300   3.552  1.2396  0.5690  0.7776
14965SOL     OW46335   4.687   4.539   1.571 -0.1731 -0.0329 -0.0255
14965SOL    HW146336   4.605   4.560   1.616  0.5432 -0.8742  1.7712
14965SOL    HW246337   4.686   4.443   1.563  0.4574 -0.0217 -0.3235
14966SOL     OW46338   6.772   5.840   4.333  0.3511  0.3020 -0.1242
14966SOL    HW146339   6.745   5.761   4.286  0.0727  0.6252 -0.5116
14966SOL    HW246340   6.828   5.808   4.404 -2.2281 -0.5302  1.6770
14967SOL     OW46341   5.873   4.316   3.118  0.3067  0.0341 -0.3166
14967SOL    HW146342   5.819   4.343   3.192  0.0335 -1.8300  0.2210
14967SOL    HW246343   5.904   4.398   3.079 -1.1591  1.0952  0.6506
14968SOL     OW46344   3.432   2.284   2.563  0.1491  0.1487 -0.3140
14968SOL    HW146345   3.371   2.284   2.637  0.2451 -0.9417 -0.2186
14968SOL    HW246346   3.420   2.370   2.522 -1.3643 -0.0024 -0.2322
14969SOL     OW46347   4.770   6.383   1.189 -0.5421 -0.4322  0.2013
14969SOL    HW146348   4.782   6.324   1.115  1.0175  0.6795 -0.4901
14969SOL    HW246349   4.779   6.471   1.152 -0.0777  0.1612  1.6490
14970SOL     OW46350   5.573   4.842   2.974 -0.1288  0.3821 -0.1161
14970SOL    HW146351   5.525   4.921   2.949 -1.5380  0.7197  3.0984
14970SOL    HW246352   5.511   4.771   2.961 -0.0937  0.2802  0.2637
14971SOL     OW46353   5.009   3.438   1.417 -0.6535  0.1131 -0.0023
14971SOL    HW146354   5.034   3.484   1.337 -0.2059  1.8663  1.0968
14971SOL    HW246355   5.090   3.397   1.448 -0.5967  0.3134  0.1121
14972SOL     OW46356   5.343   5.188   0.795  0.1685  0.5385  0.6195
14972SOL    HW146357   5.364   5.115   0.737  1.3545  1.5896 -0.3469
14972SOL    HW246358   5.351   5.266   0.739 -3.0070  1.3559  1.0761
14973SOL     OW46359   6.413   4.949   2.681 -0.2418 -0.1803 -0.2913
14973SOL    HW146360   6.320   4.935   2.665 -0.2475  1.0019 -1.4595
14973SOL    HW246361   6.446   4.865   2.711 -1.7265 -0.5595  0.3308
14974SOL     OW46362   5.545   4.545   3.108 -1.0465  0.2716  0.1082
14974SOL    HW146363   5.604   4.503   3.171  1.5936  0.0362 -2.2714
14974SOL    HW246364   5.593   4.542   3.025 -3.7326  1.7515 -1.6694
14975SOL     OW46365   6.188   5.615   1.721 -0.1700 -0.4546 -0.2289
14975SOL    HW146366   6.268   5.658   1.749  1.0271 -2.6847  0.0018
14975SOL    HW246367   6.193   5.612   1.626 -0.8774  0.9467 -0.3412
14976SOL     OW46368   4.853   5.397   3.209 -0.0361  0.2944  0.1543
14976SOL    HW146369   4.761   5.421   3.194 -0.4341 -0.4087  1.3323
14976SOL    HW246370   4.852   5.350   3.292  1.7016  2.0285  1.2451
14977SOL     OW46371   5.768   3.651   4.078 -0.3600 -0.2645  0.3731
14977SOL    HW146372   5.740   3.592   4.148 -0.0507 -0.5861  0.2321
14977SOL    HW246373   5.795   3.592   4.007  0.2048  0.0366  0.3283
14978SOL     OW46374   3.881   4.694   1.831  0.0831 -0.1540  0.9474
14978SOL    HW146375   3.973   4.720   1.828  0.0294 -0.0391  0.0398
14978SOL    HW246376   3.832   4.774   1.814 -0.1161 -0.5328 -0.4643
14979SOL     OW46377   3.914   4.730   3.928 -0.6200 -0.0977 -0.6883
14979SOL    HW146378   3.836   4.675   3.933 -1.1214  0.6864  1.1565
14979SOL    HW246379   3.887   4.814   3.966  0.8532  0.5222 -0.9284
14980SOL     OW46380   3.276   3.206   1.406  0.6880  0.2630  0.0353
14980SOL    HW146381   3.208   3.150   1.368  0.5894  0.1911  0.3158
14980SOL    HW246382   3.348   3.146   1.425  1.1943  0.4814 -1.1080
14981SOL     OW46383   6.585   4.608   3.386  0.1023 -0.0789  0.1041
14981SOL    HW146384   6.566   4.514   3.381  0.5419 -0.1481 -0.3479
14981SOL    HW246385   6.508   4.646   3.428 -0.8416 -0.4035 -1.2907
14982SOL     OW46386   4.290   4.892   2.449  0.2414 -0.1458  0.3477
14982SOL    HW146387   4.364   4.938   2.490  0.3773  0.5081 -0.5904
14982SOL    HW246388   4.234   4.963   2.416  0.9435 -0.5982 -2.0073
14983SOL     OW46389   4.923   5.546   1.336  0.1314  0.0321  0.0088
14983SOL    HW146390   5.015   5.541   1.360 -0.6682  2.3348  5.1555
14983SOL    HW246391   4.880   5.482   1.393 -1.6220  0.6842 -0.5136
14984SOL     OW46392   4.589   4.729   3.157 -0.0141  0.2786 -0.7102
14984SOL    HW146393   4.667   4.784   3.151  0.1132  0.0347 -1.3443
14984SOL    HW246394   4.589   4.698   3.248 -0.3312  1.6645 -0.2123
14985SOL     OW46395   4.952   5.238   1.669  0.2188 -0.0116  0.2602
14985SOL    HW146396   5.045   5.218   1.671  0.1823 -0.5887 -1.3702
14985SOL    HW246397   4.911   5.157   1.637 -0.4575  1.1422 -2.1003
14986SOL     OW46398   5.499   3.981   2.423 -0.4461  0.0551 -0.0366
14986SOL    HW146399   5.419   4.030   2.400  0.2725  1.0203 -0.5537
14986SOL    HW246400   5.537   4.032   2.495 -0.0906 -0.1896 -0.0529
14987SOL     OW46401   4.715   6.580   3.457 -0.4947  0.0764  0.0024
14987SOL    HW146402   4.775   6.524   3.408  2.0630  0.8550  1.9867
14987SOL    HW246403   4.769   6.655   3.483 -2.7601  1.5395  0.7218
14988SOL     OW46404   6.625   5.082   2.559  0.1522 -0.9699 -0.0199
14988SOL    HW146405   6.698   5.027   2.530 -0.8807 -2.4954  0.1558
14988SOL    HW246406   6.556   5.020   2.581 -1.4422  0.4722 -0.8061
14989SOL     OW46407   5.876   3.849   2.164 -0.8251 -0.5552  0.6061
14989SOL    HW146408   5.811   3.796   2.118 -1.3636  0.1393  0.5502
14989SOL    HW246409   5.959   3.827   2.122 -1.4904  1.2800 -1.8906
14990SOL     OW46410   3.669   3.809   1.422  0.1507 -0.2073  0.2164
14990SOL    HW146411   3.593   3.819   1.479  0.2089  0.4150  0.1900
14990SOL    HW246412   3.697   3.898   1.404  0.9887 -0.4408  0.3501
14991SOL     OW46413   4.807   3.307   3.542  0.0114 -0.1659 -0.9192
14991SOL    HW146414   4.745   3.326   3.613 -0.5186 -1.0234 -1.1499
14991SOL    HW246415   4.753   3.280   3.468  0.6664 -1.3187 -1.0074
14992SOL     OW46416   6.589   5.518   3.973  0.0870  0.2045  0.0901
14992SOL    HW146417   6.552   5.431   3.982  2.3005 -0.7850  0.2906
14992SOL    HW246418   6.624   5.521   3.884 -2.5409  2.0363 -1.0155
14993SOL     OW46419   4.031   5.021   1.213 -0.2439  0.2916  0.6627
14993SOL    HW146420   4.093   4.949   1.203 -0.1268  0.4993 -0.1884
14993SOL    HW246421   4.076   5.097   1.176 -0.8084  0.5435  0.4752
14994SOL     OW46422   4.988   5.209   2.152  0.0174 -0.2854 -0.3845
14994SOL    HW146423   5.045   5.181   2.080  0.6141 -0.2321  0.0705
14994SOL    HW246424   4.925   5.137   2.160  0.7509 -0.9081 -0.0897
14995SOL     OW46425   4.527   5.067   2.555  0.8662 -0.4332 -0.0386
14995SOL    HW146426   4.568   5.141   2.510  1.2163 -1.0730 -0.7878
14995SOL    HW246427   4.579   5.057   2.635  1.0029 -0.0664 -0.0761
14996SOL     OW46428   4.587   5.054   1.810 -0.3651  0.6652  0.0098
14996SOL    HW146429   4.602   5.147   1.825 -0.7001  0.5789  0.9469
14996SOL    HW246430   4.536   5.025   1.886  2.9347 -1.1142  1.8104
14997SOL     OW46431   5.568   3.831   2.142  0.3893  0.2745  0.1395
14997SOL    HW146432   5.522   3.753   2.173 -0.4273 -0.2287 -2.0968
14997SOL    HW246433   5.552   3.897   2.209 -1.2939 -0.6736  0.7448
14998SOL     OW46434   4.581   5.565   5.031 -0.4646 -0.4189 -0.3556
14998SOL    HW146435   4.657   5.507   5.030 -1.1958 -1.4765  1.3531
14998SOL    HW246436   4.505   5.507   5.031 -1.2427  0.5560  0.1249
14999SOL     OW46437   3.437   4.760   1.609  0.0421 -0.8327 -0.0141
14999SOL    HW146438   3.528   4.779   1.631 -0.8863  3.3124  1.1015
14999SOL    HW246439   3.436   4.756   1.513  1.1201  1.4130 -0.1804
15000SOL     OW46440   1.891   5.186   3.520  0.1225 -0.0347  0.0111
15000SOL    HW146441   1.980   5.202   3.552  0.6311 -0.6214 -1.0680
15000SOL    HW246442   1.874   5.094   3.543 -0.0260 -0.0608 -0.2040
15001SOL     OW46443   5.227   3.882   1.994  0.2314 -0.3963  0.0377
15001SOL    HW146444   5.262   3.799   1.964  0.7529  0.0842 -0.7017
15001SOL    HW246445   5.223   3.937   1.916 -0.6515  0.0925  0.4030
15002SOL     OW46446   4.282   2.396   1.421 -0.7694 -0.1319  0.1026
15002SOL    HW146447   4.247   2.464   1.363  0.3391  1.9158  1.7180
15002SOL    HW246448   4.374   2.418   1.432 -0.3555 -1.9651  0.6476
15003SOL     OW46449   6.078   5.292   1.840 -0.1289  0.1852 -0.3671
15003SOL    HW146450   6.022   5.220   1.811 -0.2259  0.0481  0.1528
15003SOL    HW246451   6.162   5.276   1.796  0.5890 -1.5498  1.5062
15004SOL     OW46452   3.443   5.276   2.717 -0.8434  0.2167  0.1161
15004SOL    HW146453   3.381   5.205   2.705  0.0381 -0.7692  1.1729
15004SOL    HW246454   3.392   5.345   2.761 -0.8665 -1.1953  2.4821
15005SOL     OW46455   4.133   5.614   2.556 -0.4753 -0.2018 -0.2955
15005SOL    HW146456   4.178   5.697   2.571 -1.3565  0.2674 -0.1472
15005SOL    HW246457   4.177   5.552   2.614  1.9734 -0.5211 -2.3401
15006SOL     OW46458   4.391   3.884   2.888 -0.0364  0.5540  0.3897
15006SOL    HW146459   4.474   3.837   2.881 -0.5638 -0.3607  0.1716
15006SOL    HW246460   4.397   3.933   2.970  0.9846  1.0433  0.0359
15007SOL     OW46461   4.065   4.340   1.892  0.6738  0.0227 -0.4297
15007SOL    HW146462   3.974   4.359   1.914  0.8537  1.7438 -1.0138
15007SOL    HW246463   4.092   4.274   1.956 -0.2841  1.2145  1.3008
15008SOL     OW46464   3.758   6.395   4.770 -0.3137  0.6853 -0.0408
15008SOL    HW146465   3.715   6.357   4.693 -1.4313  0.4972  0.6521
15008SOL    HW246466   3.749   6.328   4.838  1.8503  0.2799 -0.0761
15009SOL     OW46467   3.987   4.277   2.332  0.2830 -0.0808  0.5884
15009SOL    HW146468   3.898   4.307   2.348  0.3246 -0.1628  0.9807
15009SOL    HW246469   4.031   4.283   2.417  0.7930  0.4243  0.2994
15010SOL     OW46470   4.815   2.655   1.612 -0.1736  0.2012  0.5070
15010SOL    HW146471   4.733   2.606   1.602  0.8384 -1.7404  1.1104
15010SOL    HW246472   4.851   2.623   1.696  0.9191  1.4370  0.5376
15011SOL     OW46473   5.291   4.507   1.207  0.2718 -0.1997 -0.2288
15011SOL    HW146474   5.204   4.530   1.174 -0.0771  0.2672  0.9512
15011SOL    HW246475   5.342   4.587   1.198  0.9290 -0.7757 -1.9371
15012SOL     OW46476   1.837   5.775   0.595  0.2603 -0.0284 -0.1277
15012SOL    HW146477   1.851   5.826   0.515 -0.0070 -0.9310 -0.7650
15012SOL    HW246478   1.889   5.696   0.583  0.9244  0.2223  0.9935
15013SOL     OW46479   4.696   5.703   1.859 -0.5211 -0.0818 -0.5786
15013SOL    HW146480   4.661   5.623   1.819  0.3665 -0.4719 -0.6079
15013SOL    HW246481   4.746   5.673   1.935 -2.3932  0.6755  1.0266
15014SOL     OW46482   2.881   5.526   4.120  0.6339  0.9461  0.6167
15014SOL    HW146483   2.973   5.525   4.094  0.1668  1.1800 -1.2068
15014SOL    HW246484   2.881   5.567   4.207  2.3573 -0.3084  1.2684
15015SOL     OW46485   3.759   4.129   4.406  0.7156 -0.0396 -0.6859
15015SOL    HW146486   3.735   4.076   4.482 -1.2123  0.8357 -0.6226
15015SOL    HW246487   3.844   4.094   4.379  1.0638 -0.9403  1.3369
15016SOL     OW46488   3.320   4.296   4.099 -0.4948  0.0934 -0.1840
15016SOL    HW146489   3.302   4.309   4.192  0.9776  0.6178  0.0610
15016SOL    HW246490   3.314   4.201   4.086 -0.9558  0.0401  0.3921
15017SOL     OW46491   4.808   5.849   4.255 -0.3846 -0.0293 -0.1509
15017SOL    HW146492   4.766   5.831   4.171  0.3012 -0.5357 -0.3967
15017SOL    HW246493   4.743   5.823   4.320 -1.6246  1.9943 -0.4821
15018SOL     OW46494   4.514   5.125   5.085  0.2367 -0.0623 -0.4795
15018SOL    HW146495   4.421   5.124   5.063  0.4470 -0.8770 -1.4520
15018SOL    HW246496   4.558   5.125   5.000  1.1444  1.4451 -0.0388
15019SOL     OW46497   5.426   4.589   3.954 -0.6176 -0.1822  0.4194
15019SOL    HW146498   5.468   4.632   4.029 -1.7390 -0.5441  1.2940
15019SOL    HW246499   5.483   4.608   3.880  0.1771  0.7566  1.2424
15020SOL     OW46500   6.028   5.091   4.398  0.0135  0.3458 -0.0254
15020SOL    HW146501   5.941   5.121   4.371 -0.1693 -0.4747 -0.3554
15020SOL    HW246502   6.069   5.060   4.318  0.3396  0.0588  0.2504
15021SOL     OW46503   4.840   4.232   5.671  0.4725  0.3078 -0.3628
15021SOL    HW146504   4.869   4.250   5.760  1.1767  1.1696 -0.7520
15021SOL    HW246505   4.908   4.269   5.615 -0.1209  0.0786 -1.2636
15022SOL     OW46506   3.450   5.645   5.441  0.3809  0.8508  0.1496
15022SOL    HW146507   3.493   5.587   5.504  2.2891 -2.0762 -3.3919
15022SOL    HW246508   3.507   5.721   5.435  0.0415  1.2994  1.9756
15023SOL     OW46509   5.207   6.201   5.169  0.1283 -0.5219 -0.2053
15023SOL    HW146510   5.241   6.144   5.238 -0.9811 -1.0037 -0.0276
15023SOL    HW246511   5.126   6.236   5.206  0.0774  0.0716 -0.8599
15024SOL     OW46512   3.591   3.996   4.246 -0.3182 -0.9540  0.3196
15024SOL    HW146513   3.634   4.055   4.309 -0.3967 -1.4282  0.8187
15024SOL    HW246514   3.616   4.031   4.161  0.8522 -1.0584  0.6004
15025SOL     OW46515   7.239   6.203   3.199 -0.2524  0.0150 -0.1367
15025SOL    HW146516   7.306   6.262   3.165  0.3701  0.2679  1.4488
15025SOL    HW246517   7.288   6.135   3.245 -1.0298  0.8380  2.0751
15026SOL     OW46518   3.948   6.768   3.967  0.2374  0.1142  0.3106
15026SOL    HW146519   4.021   6.782   4.028  1.3059 -1.3847 -0.5419
15026SOL    HW246520   3.978   6.806   3.885 -0.1505 -0.0617  0.0831
15027SOL     OW46521   4.161   5.701   5.199 -0.3660  0.0539  0.4241
15027SOL    HW146522   4.184   5.635   5.266 -0.4783 -0.4166  0.0022
15027SOL    HW246523   4.080   5.741   5.231  0.2611  0.7359  1.2149
15028SOL     OW46524   3.866   4.971   5.011  0.2024 -0.2215 -0.3301
15028SOL    HW146525   3.852   4.877   5.020  2.9619 -0.7097 -0.3748
15028SOL    HW246526   3.806   4.998   4.941 -0.9401 -1.8249 -0.0282
15029SOL     OW46527   5.183   3.816   4.691 -0.0730  0.0019  0.0860
15029SOL    HW146528   5.094   3.841   4.718 -0.3990 -0.5425 -0.4659
15029SOL    HW246529   5.197   3.860   4.608  0.0505 -0.1816  0.0087
15030SOL     OW46530   3.500   4.495   3.335 -0.0282  0.0719 -0.4907
15030SOL    HW146531   3.522   4.432   3.403  0.5456  0.6473 -0.1304
15030SOL    HW246532   3.404   4.504   3.340  0.0778  0.7341  0.8214
15031SOL     OW46533   5.612   7.368   4.911 -0.0220  0.0125  0.4038
15031SOL    HW146534   5.603   7.463   4.908  3.1855  0.4318 -0.0382
15031SOL    HW246535   5.619   7.341   4.819  0.6022 -0.3996  0.5600
15032SOL     OW46536   4.327   5.077   3.204  0.0069  0.4669  0.3392
15032SOL    HW146537   4.350   4.984   3.211  1.1644  0.7601  0.6757
15032SOL    HW246538   4.273   5.094   3.281 -0.4060  0.0279  0.1543
15033SOL     OW46539   4.740   2.326   4.365 -0.0048  0.0567 -0.5059
15033SOL    HW146540   4.669   2.291   4.419  0.0140 -0.2784 -0.6968
15033SOL    HW246541   4.704   2.407   4.329 -0.1569  0.0822 -0.2996
15034SOL     OW46542   5.064   4.649   3.800 -0.5123  0.1178  0.0122
15034SOL    HW146543   5.091   4.741   3.802  0.7809 -0.1975 -1.0677
15034SOL    HW246544   5.066   4.621   3.892  1.7368  0.4804  0.1343
15035SOL     OW46545   5.155   6.181   4.155 -0.2355 -0.1626  0.3460
15035SOL    HW146546   5.073   6.196   4.109 -0.9494 -2.1306  0.8851
15035SOL    HW246547   5.145   6.229   4.237 -0.3848  0.4885 -0.0416
15036SOL     OW46548   5.209   5.573   4.949 -0.0581  0.0384 -0.5177
15036SOL    HW146549   5.139   5.508   4.952  1.1859 -1.3326  0.3464
15036SOL    HW246550   5.254   5.555   4.867  1.1086 -1.1727  0.3311
15037SOL     OW46551   5.673   5.646   3.667  0.1166  0.3166 -0.2334
15037SOL    HW146552   5.645   5.699   3.593 -0.7398  0.7392  0.3658
15037SOL    HW246553   5.757   5.684   3.694  1.3655 -0.9896 -2.0820
15038SOL     OW46554   4.751   5.593   4.102  0.7459  0.6239 -0.4424
15038SOL    HW146555   4.658   5.570   4.099  1.1117 -1.1808  0.3200
15038SOL    HW246556   4.782   5.580   4.013  0.0236  2.6008 -1.0356
15039SOL     OW46557   3.818   4.569   5.957  0.1606 -0.0070 -0.2654
15039SOL    HW146558   3.765   4.510   5.903  0.6097  0.0892 -0.8268
15039SOL    HW246559   3.873   4.615   5.894  1.0115 -0.2103  0.3173
15040SOL     OW46560   5.248   4.225   4.680  0.6665  0.1476  0.3084
15040SOL    HW146561   5.315   4.186   4.624 -0.0057 -0.2064 -0.2636
15040SOL    HW246562   5.261   4.183   4.765  0.3903 -0.8470 -0.1200
15041SOL     OW46563   4.087   5.334   4.711 -0.2954 -0.1776  0.5093
15041SOL    HW146564   4.090   5.428   4.728 -0.4976  0.0515 -0.6488
15041SOL    HW246565   4.178   5.305   4.723 -0.1078  0.2811  0.2309
15042SOL     OW46566   7.834   7.163   4.616  0.2096 -0.4569 -0.3771
15042SOL    HW146567   7.831   7.091   4.553  2.5744 -1.8059  0.9214
15042SOL    HW246568   7.918   7.206   4.600 -0.8471  1.6285 -0.6453
15043SOL     OW46569   4.752   5.411   5.498 -0.2349  0.0092  0.4497
15043SOL    HW146570   4.801   5.345   5.546  0.3357 -0.0164 -0.1481
15043SOL    HW246571   4.691   5.361   5.443  1.0835 -0.1093 -0.9682
15044SOL     OW46572   3.930   3.911   4.871 -0.2424  0.9014  0.7128
15044SOL    HW146573   3.867   3.976   4.903  0.1621  1.4564  0.3945
15044SOL    HW246574   3.894   3.827   4.900 -0.2831  1.3248  1.9617
15045SOL     OW46575   4.796   3.862   3.947 -0.2648  0.2344  0.0724
15045SOL    HW146576   4.705   3.839   3.968 -0.4660 -0.8828 -1.8018
15045SOL    HW246577   4.824   3.795   3.885  2.1948  0.0194  1.3118
15046SOL     OW46578   4.177   6.138   6.236 -0.7151 -0.3353  0.1040
15046SOL    HW146579   4.229   6.058   6.247 -1.0324 -0.3466  1.9948
15046SOL    HW246580   4.233   6.207   6.273 -0.5599  0.2948 -1.2575
15047SOL     OW46581   4.946   4.101   5.216  0.4679  0.5499 -0.1995
15047SOL    HW146582   4.909   4.051   5.143  0.1359  0.3956  0.0705
15047SOL    HW246583   4.909   4.189   5.206 -0.4076  0.2578  0.3737
15048SOL     OW46584   4.937   4.032   4.095 -0.0980 -0.2754  0.2913
15048SOL    HW146585   4.890   4.112   4.072  0.4106 -0.3068 -0.9545
15048SOL    HW246586   4.894   3.963   4.043  0.3869 -0.5481  0.2440
15049SOL     OW46587   5.866   4.797   3.055 -0.3869 -0.4405 -0.0760
15049SOL    HW146588   5.890   4.874   3.107 -0.1984 -1.5679  1.5953
15049SOL    HW246589   5.789   4.824   3.005  0.3424  1.1551 -0.3886
15050SOL     OW46590   5.006   4.347   4.193  0.3774  0.3289 -0.0578
15050SOL    HW146591   4.961   4.340   4.278  0.8420  1.3383  0.2809
15050SOL    HW246592   4.949   4.300   4.133 -0.4068  0.3421  0.6504
15051SOL     OW46593   6.403   4.742   2.922  0.4430  0.2169  0.0473
15051SOL    HW146594   6.497   4.736   2.910  0.3985  1.3020 -1.0763
15051SOL    HW246595   6.382   4.675   2.988  1.9743 -0.0441  0.2941
15052SOL     OW46596   5.115   6.251   4.414 -0.2643  0.0694 -0.1346
15052SOL    HW146597   5.054   6.181   4.432 -0.1858 -0.1854 -0.8077
15052SOL    HW246598   5.063   6.331   4.422 -0.2983 -0.0416  0.8560
15053SOL     OW46599   3.683   4.606   3.970 -0.0444 -0.0386 -0.0697
15053SOL    HW146600   3.610   4.577   4.025 -0.3114  0.3296 -0.2240
15053SOL    HW246601   3.675   4.702   3.968  0.2786 -0.0155 -0.3169
15054SOL     OW46602   4.853   4.280   3.974  0.0734  0.0703  1.0792
15054SOL    HW146603   4.884   4.349   3.916  1.6915 -1.6618 -0.2277
15054SOL    HW246604   4.758   4.291   3.976  0.0333  0.6525 -1.3155
15055SOL     OW46605   6.360   5.709   4.054  0.0296  0.2110  0.3271
15055SOL    HW146606   6.429   5.648   4.026  0.0215  0.6538 -0.6841
15055SOL    HW246607   6.296   5.653   4.098 -1.0369 -0.9251 -2.4352
15056SOL     OW46608   4.507   4.392   5.312 -0.0415 -0.4568 -0.1321
15056SOL    HW146609   4.496   4.456   5.383 -0.9880 -1.8893  1.0622
15056SOL    HW246610   4.571   4.330   5.346 -0.1258 -0.8808 -0.7483
15057SOL     OW46611   5.669   4.935   3.889  0.2536  0.4961 -0.4501
15057SOL    HW146612   5.580   4.937   3.925  0.6233 -0.3543  0.5479
15057SOL    HW246613   5.659   4.889   3.805 -0.5164  1.9867 -1.2252
15058SOL     OW46614   6.804   7.124   6.072 -0.0212  0.1776  0.2586
15058SOL    HW146615   6.794   7.042   6.023  1.6020 -0.9986  1.7848
15058SOL    HW246616   6.803   7.097   6.164 -0.8967  2.0762  0.8567
15059SOL     OW46617   4.308   3.595   2.039 -0.1950 -0.0121  0.3090
15059SOL    HW146618   4.319   3.594   1.944  0.4464  0.5253  0.3724
15059SOL    HW246619   4.382   3.543   2.072 -0.0145  0.3953  0.5495
15060SOL     OW46620   3.708   5.282   4.605 -0.1901 -0.3290 -0.0420
15060SOL    HW146621   3.755   5.315   4.528 -0.8714  0.3174 -0.2059
15060SOL    HW246622   3.751   5.200   4.627  1.1439  0.3465 -0.0475
15061SOL     OW46623   6.261   4.833   3.933  0.1101  0.2317 -0.0631
15061SOL    HW146624   6.318   4.835   3.856 -0.4814 -1.9451 -0.6428
15061SOL    HW246625   6.307   4.779   3.997 -1.1714 -1.5339 -0.5288
15062SOL     OW46626   4.249   4.109   5.279  0.1906 -0.0025  0.8501
15062SOL    HW146627   4.194   4.043   5.236  0.8710 -1.7794  2.5164
15062SOL    HW246628   4.314   4.133   5.213 -0.4332 -0.5551  0.0097
15063SOL     OW46629   4.480   4.193   5.131 -0.1672 -0.4382  0.0936
15063SOL    HW146630   4.427   4.235   5.063  0.8569  0.7799  0.0166
15063SOL    HW246631   4.487   4.258   5.200  1.6274 -0.3664 -0.1114
15064SOL     OW46632   4.876   5.669   4.798 -0.1183 -0.0929 -0.1913
15064SOL    HW146633   4.901   5.749   4.846 -0.5956  0.3994 -0.7483
15064SOL    HW246634   4.920   5.677   4.714  0.1129 -0.5932 -0.1176
15065SOL     OW46635   5.132   3.743   5.189 -0.0843  0.0001  0.7625
15065SOL    HW146636   5.104   3.800   5.260 -2.4817 -0.6802  0.4470
15065SOL    HW246637   5.054   3.733   5.135  1.4464 -0.1649 -1.5382
15066SOL     OW46638   3.857   7.753   4.546 -0.1473  0.1588 -0.2505
15066SOL    HW146639   3.802   7.816   4.592  0.4030 -0.0414  0.7015
15066SOL    HW246640   3.946   7.772   4.577 -0.0753 -1.7193  0.8182
15067SOL     OW46641   5.731   2.684   6.102  0.3185  0.4515 -0.0289
15067SOL    HW146642   5.678   2.604   6.106  2.2836 -0.9248  0.3740
15067SOL    HW246643   5.679   2.750   6.147 -1.2419 -0.6806 -0.0878
15068SOL     OW46644   4.498   4.746   4.482 -0.1466  0.1729  0.2467
15068SOL    HW146645   4.448   4.707   4.409  0.3768  0.3215 -0.1999
15068SOL    HW246646   4.504   4.676   4.547  0.9450 -0.5727 -0.6264
15069SOL     OW46647   4.814   5.987   5.275  0.1212  0.3148  0.0687
15069SOL    HW146648   4.878   5.922   5.303  0.2026  0.2683 -0.2310
15069SOL    HW246649   4.760   5.942   5.211 -0.8351  0.0467  1.0300
15070SOL     OW46650   5.203   4.214   5.209 -0.1147  0.0039  0.3018
15070SOL    HW146651   5.110   4.191   5.212 -0.3144  0.8073  0.3943
15070SOL    HW246652   5.243   4.161   5.278 -0.5501 -0.1347  0.4521
15071SOL     OW46653   5.969   5.261   1.485  0.5012  0.2393 -0.1508
15071SOL    HW146654   6.041   5.217   1.531 -1.9322 -1.4074  2.3679
15071SOL    HW246655   5.944   5.199   1.416  1.7158  1.0623 -1.4100
15072SOL     OW46656   6.170   3.190   3.560  0.2230 -0.3553 -0.0958
15072SOL    HW146657   6.178   3.272   3.608  0.1855 -1.0556  1.1447
15072SOL    HW246658   6.156   3.216   3.469  0.0125  1.0055  0.3141
15073SOL     OW46659   6.176   4.111   2.903  0.2900  0.0889 -0.4940
15073SOL    HW146660   6.102   4.051   2.916 -1.3054  2.1298  0.4064
15073SOL    HW246661   6.182   4.121   2.808 -0.9320  0.2482 -0.5754
15074SOL     OW46662   5.838   3.847   4.441 -0.1094 -0.0677 -0.1777
15074SOL    HW146663   5.829   3.820   4.532 -0.9596  1.2899  0.1610
15074SOL    HW246664   5.758   3.896   4.422  0.1608 -0.1235 -1.5861
15075SOL     OW46665   4.402   5.559   4.397 -0.4381 -0.3255 -0.3089
15075SOL    HW146666   4.449   5.641   4.383 -0.0366 -0.7130 -1.2748
15075SOL    HW246667   4.384   5.526   4.309 -1.2210 -0.9283  0.0614
15076SOL     OW46668   3.799   5.198   6.054  0.3897 -0.4241 -0.3376
15076SOL    HW146669   3.847   5.205   5.971 -2.4973  2.2455 -2.0033
15076SOL    HW246670   3.804   5.105   6.076  1.6847 -1.1721 -3.2738
15077SOL     OW46671   6.188   7.896   5.099  0.3906 -0.0752 -0.3503
15077SOL    HW146672   6.204   7.902   5.193 -0.7191  0.6758 -0.1858
15077SOL    HW246673   6.264   7.849   5.064  0.5580 -0.8355  0.9855
15078SOL     OW46674   4.727   5.548   3.807 -0.1960 -0.0285 -0.1111
15078SOL    HW146675   4.701   5.464   3.770 -0.6969  0.7347 -1.5685
15078SOL    HW246676   4.812   5.566   3.769 -0.7469  0.8033 -0.9914
15079SOL     OW46677   4.550   5.400   4.553  0.2740 -0.0884  0.1118
15079SOL    HW146678   4.486   5.440   4.495 -0.4990 -0.7969  0.4472
15079SOL    HW246679   4.589   5.473   4.601 -0.7927  0.3077  0.4044
15080SOL     OW46680   4.524   3.929   5.109  0.2898  0.2368 -0.8319
15080SOL    HW146681   4.515   4.024   5.107 -0.0250  0.2043 -2.8733
15080SOL    HW246682   4.597   3.910   5.050  1.0931 -0.7559  0.4153
15081SOL     OW46683   4.762   6.301   6.178 -0.1680 -0.0897  0.1814
15081SOL    HW146684   4.724   6.229   6.128  0.9883 -0.4492 -0.1988
15081SOL    HW246685   4.760   6.376   6.118 -1.0423  0.1262  0.4576
15082SOL     OW46686   5.154   4.600   3.499 -0.2355 -0.3727 -0.4855
15082SOL    HW146687   5.175   4.586   3.591  3.4481 -0.3770 -1.2029
15082SOL    HW246688   5.092   4.673   3.500  1.0866  0.8457  1.9421
15083SOL     OW46689   4.211   5.981   6.835 -0.6553  0.2592  0.6448
15083SOL    HW146690   4.230   5.901   6.786 -0.5519 -0.0435  1.1707
15083SOL    HW246691   4.137   6.021   6.789  0.6775  1.0234 -0.9426
15084SOL     OW46692   4.018   5.089   3.531 -0.0874 -0.3246  0.4014
15084SOL    HW146693   4.070   5.027   3.582  0.7616 -0.2378 -0.3409
15084SOL    HW246694   3.965   5.134   3.596  1.5029  0.2970  1.3280
15085SOL     OW46695   4.233   5.090   5.086 -0.0017 -0.4213  0.3179
15085SOL    HW146696   4.186   5.056   5.009  0.7471 -0.1415 -0.2733
15085SOL    HW246697   4.215   5.026   5.155 -0.1615 -1.0204 -0.2625
15086SOL     OW46698   5.005   5.941   3.448  0.4190  0.0329 -0.6389
15086SOL    HW146699   4.972   5.851   3.457  0.6525  0.0956  1.1941
15086SOL    HW246700   4.932   5.990   3.411 -0.7413 -0.3349  1.0840
15087SOL     OW46701   4.514   3.722   5.816 -0.0615 -0.1145  0.0449
15087SOL    HW146702   4.609   3.729   5.808 -0.2849  1.6799 -1.9002
15087SOL    HW246703   4.490   3.650   5.758  0.0565 -0.0266 -0.1151
15088SOL     OW46704   4.993   4.917   5.008 -0.0406  0.3619 -0.8394
15088SOL    HW146705   5.083   4.894   5.033 -0.6695 -2.2564 -0.6893
15088SOL    HW246706   4.996   4.922   4.912  0.1976 -0.0698 -0.8570
15089SOL     OW46707   5.692   5.020   6.047  0.1844  0.0388  0.0760
15089SOL    HW146708   5.724   5.108   6.029 -0.8145  0.0988 -1.5563
15089SOL    HW246709   5.658   5.025   6.137  2.0128  0.7281  0.7579
15090SOL     OW46710   6.000   4.097   3.209 -0.1962 -0.6771 -0.2658
15090SOL    HW146711   5.963   4.172   3.162 -1.1812 -2.0198 -1.7656
15090SOL    HW246712   6.067   4.063   3.150  1.5237  0.0455  1.1927
15091SOL     OW46713   4.019   3.420   4.608 -0.0827 -0.6578  0.2429
15091SOL    HW146714   4.008   3.360   4.534  0.1347 -0.7118  0.2524
15091SOL    HW246715   4.110   3.406   4.636 -0.6584 -1.9130  1.6189
15092SOL     OW46716   4.691   5.159   4.594 -0.1029 -0.2956  0.3088
15092SOL    HW146717   4.651   5.102   4.527  1.0584  1.0749 -1.6529
15092SOL    HW246718   4.646   5.243   4.583  0.0236 -0.0861  1.3684
15093SOL     OW46719   5.285   5.618   5.258 -0.2974 -0.2777  0.4123
15093SOL    HW146720   5.250   5.574   5.181  1.3391  0.5099 -0.8345
15093SOL    HW246721   5.329   5.549   5.308 -0.4683 -0.6069  0.1083
15094SOL     OW46722   5.461   3.367   3.847 -0.2796 -0.5021 -0.3325
15094SOL    HW146723   5.442   3.424   3.773 -0.0653  1.2290  0.8908
15094SOL    HW246724   5.395   3.390   3.912 -0.2641 -1.7579  0.1653
15095SOL     OW46725   5.079   5.911   5.416  0.3939 -0.4345  0.3138
15095SOL    HW146726   5.088   5.906   5.511  0.3180  1.2060  0.4296
15095SOL    HW246727   5.151   5.967   5.387 -0.1057 -0.1751 -0.4868
15096SOL     OW46728   6.407   5.696   5.447 -0.8290 -0.3136 -0.2981
15096SOL    HW146729   6.426   5.687   5.353  1.9862 -0.1107  0.1678
15096SOL    HW246730   6.344   5.626   5.465 -0.3826 -1.2478 -2.0689
15097SOL     OW46731   5.116   3.848   4.173 -0.4294 -0.0703 -1.0946
15097SOL    HW146732   5.102   3.802   4.091  0.3455 -1.6080 -0.4017
15097SOL    HW246733   5.072   3.933   4.161  0.6820  0.2409 -3.5078
15098SOL     OW46734   4.721   5.272   4.094 -0.0553  0.6979 -0.1258
15098SOL    HW146735   4.732   5.305   4.005  0.5435  0.9528  0.0379
15098SOL    HW246736   4.667   5.338   4.138  1.2887  1.5692  0.2517
15099SOL     OW46737   5.798   5.977   2.231  0.6229  0.6534 -0.4273
15099SOL    HW146738   5.753   5.994   2.313 -1.3320 -1.3835 -1.0025
15099SOL    HW246739   5.770   6.048   2.173 -2.9509 -1.1326 -1.1216
15100SOL     OW46740   4.504   4.488   5.569  0.1800  0.4628 -0.7427
15100SOL    HW146741   4.555   4.567   5.554  0.7954  0.0563 -0.8687
15100SOL    HW246742   4.436   4.514   5.631  1.8886  0.5392  1.2343
15101SOL     OW46743   4.960   3.448   5.504  0.3632 -0.1870  0.6563
15101SOL    HW146744   4.907   3.398   5.567  0.6454 -1.7444 -0.2939
15101SOL    HW246745   4.911   3.529   5.491 -1.4884 -1.2990  0.3076
15102SOL     OW46746   3.796   4.662   3.421 -0.2752 -0.9248  0.1855
15102SOL    HW146747   3.852   4.696   3.491  1.1377 -1.0860 -0.8167
15102SOL    HW246748   3.816   4.568   3.418 -1.0431 -1.0908  0.1989
15103SOL     OW46749   4.274   5.283   6.118  0.3239 -0.0060 -0.0101
15103SOL    HW146750   4.343   5.254   6.178 -0.8665 -0.0951  1.3670
15103SOL    HW246751   4.194   5.241   6.151 -0.9222  2.3793  0.2265
15104SOL     OW46752   5.353   6.202   6.087  0.0262 -0.2321  0.4320
15104SOL    HW146753   5.269   6.173   6.052 -0.0937 -0.4295  0.8762
15104SOL    HW246754   5.333   6.281   6.137 -0.1722 -1.1856  1.9044
15105SOL     OW46755   5.174   4.455   5.397 -0.3286  0.6510  0.2874
15105SOL    HW146756   5.200   4.384   5.339 -0.9359 -0.0293  0.8402
15105SOL    HW246757   5.108   4.504   5.348  2.1419  2.6634 -1.3220
15106SOL     OW46758   5.244   4.445   6.971 -0.3063  0.1421 -0.7749
15106SOL    HW146759   5.244   4.508   6.899  0.1980  1.1512  0.0771
15106SOL    HW246760   5.154   4.413   6.975 -0.1432 -0.6032 -2.4051
15107SOL     OW46761   4.421   4.105   5.511 -0.9473  0.1422  0.1580
15107SOL    HW146762   4.390   4.027   5.557 -0.4578  0.1610  0.5322
15107SOL    HW246763   4.360   4.116   5.438 -1.5952 -0.0260  0.6650
15108SOL     OW46764   5.533   4.659   7.006  0.0611  0.5294 -0.0683
15108SOL    HW146765   5.551   4.569   6.981  0.9477  0.2930  1.2598
15108SOL    HW246766   5.479   4.652   7.085  0.1983  1.1431  0.0891
15109SOL     OW46767   4.659   6.193   4.486 -0.2857 -0.3784  0.1050
15109SOL    HW146768   4.731   6.251   4.462 -1.1126  0.9565  0.7379
15109SOL    HW246769   4.702   6.119   4.529  0.7928 -0.2642 -0.7255
15110SOL     OW46770   5.900   4.393   3.676 -0.5859  0.2116  0.2722
15110SOL    HW146771   5.901   4.319   3.614  2.6201  0.3953 -0.0875
15110SOL    HW246772   5.913   4.352   3.761  0.5009  0.2599  0.1483
15111SOL     OW46773   0.075   6.429   4.290 -0.0767 -0.1882  0.2072
15111SOL    HW146774   0.038   6.508   4.252  2.6994  0.9715 -0.2852
15111SOL    HW246775   0.060   6.361   4.224 -0.2065  0.5245 -0.5046
15112SOL     OW46776   5.141   4.801   4.152  0.0305  0.2381  0.2506
15112SOL    HW146777   5.133   4.716   4.111 -0.7758 -0.0241  0.9064
15112SOL    HW246778   5.233   4.807   4.179 -0.3442 -1.3643  2.1176
15113SOL     OW46779   3.639   4.953   4.836 -0.3813  0.4503  0.2524
15113SOL    HW146780   3.636   4.859   4.854  0.4632  0.7740  2.2803
15113SOL    HW246781   3.590   4.963   4.754  0.8229 -1.9426 -0.8692
15114SOL     OW46782   4.383   5.281   4.784  0.1230  0.7409  0.2993
15114SOL    HW146783   4.453   5.340   4.754  0.3536  0.3768  0.1139
15114SOL    HW246784   4.389   5.206   4.725  1.0453 -0.3332  1.6781
15115SOL     OW46785   7.444   7.005   4.592 -0.2649 -0.0827  0.6141
15115SOL    HW146786   7.357   6.986   4.557 -1.0682  1.4389  1.7055
15115SOL    HW246787   7.466   6.929   4.645 -0.1906 -1.2141 -0.9782
15116SOL     OW46788   4.396   5.519   5.406 -0.2113 -0.2440  0.4239
15116SOL    HW146789   4.435   5.458   5.468  1.0783  0.4403  0.3085
15116SOL    HW246790   4.419   5.484   5.320 -0.4628 -0.2151  0.3423
15117SOL     OW46791   5.976   5.063   3.159  0.2301  0.1206 -0.0719
15117SOL    HW146792   6.068   5.085   3.171  0.2897 -1.4677  3.7554
15117SOL    HW246793   5.928   5.135   3.200 -0.0892 -0.4202  0.5253
15118SOL     OW46794   3.386   5.933   2.776 -0.2835 -0.0175  0.0958
15118SOL    HW146795   3.445   5.888   2.715  0.7688  0.1083  0.9919
15118SOL    HW246796   3.323   5.979   2.719  1.5645  1.3371 -0.9596
15119SOL     OW46797   6.201   7.763   3.240  0.8124 -0.2852  0.3350
15119SOL    HW146798   6.277   7.820   3.228  1.0111 -0.4794  0.6666
15119SOL    HW246799   6.216   7.720   3.324 -0.7090  1.3280  1.5164
15120SOL     OW46800   5.225   5.091   3.270  0.1169  0.0762 -0.4658
15120SOL    HW146801   5.235   4.997   3.287  0.6519  0.1087 -0.5851
15120SOL    HW246802   5.273   5.105   3.188  1.1498  0.6867  0.2283
15121SOL     OW46803   4.080   3.902   4.642 -0.0115 -0.1115 -0.6974
15121SOL    HW146804   4.165   3.945   4.656  0.8646 -1.7822 -0.6298
15121SOL    HW246805   4.026   3.929   4.716 -0.0846  2.1871 -1.5179
15122SOL     OW46806   5.668   6.274   2.599 -0.0052 -0.2706  0.1292
15122SOL    HW146807   5.761   6.292   2.585 -0.1294  0.1656 -0.1158
15122SOL    HW246808   5.654   6.295   2.692 -0.0216  0.3532 -0.0120
15123SOL     OW46809   5.411   6.740   3.924  0.0383 -0.1143  0.6046
15123SOL    HW146810   5.359   6.763   3.847  0.8109  0.2428  0.1719
15123SOL    HW246811   5.348   6.741   3.996 -0.1259  3.0208  0.5647
15124SOL     OW46812   5.079   5.796   6.409  0.4566 -0.2463 -0.1681
15124SOL    HW146813   5.096   5.810   6.502  1.2180  0.0455 -0.3388
15124SOL    HW246814   5.060   5.703   6.401 -0.9541 -0.0354  0.4588
15125SOL     OW46815   5.690   6.038   5.422  0.4491 -0.2473 -0.2198
15125SOL    HW146816   5.722   6.104   5.360  0.7796 -1.7735 -1.7819
15125SOL    HW246817   5.595   6.036   5.408  0.6839 -1.8661 -2.1627
15126SOL     OW46818   4.692   5.012   4.174  0.6924 -0.4157  0.1055
15126SOL    HW146819   4.693   5.098   4.132  0.5392 -0.3868  0.1592
15126SOL    HW246820   4.769   4.967   4.139  0.7725 -0.2576  0.0771
15127SOL     OW46821   6.967   6.214   3.640 -0.1587  0.2995  0.0712
15127SOL    HW146822   7.054   6.223   3.680 -0.4148  0.2255  0.6626
15127SOL    HW246823   6.925   6.146   3.692 -0.5372  0.2717 -0.2760
15128SOL     OW46824   3.926   4.023   5.186 -0.4513 -0.0687  0.4662
15128SOL    HW146825   3.853   4.071   5.148 -0.4642  1.5288  2.3743
15128SOL    HW246826   3.895   3.932   5.193 -1.3452  0.1166 -0.9153
15129SOL     OW46827   3.270   4.267   3.601 -0.2455  0.5336  0.0229
15129SOL    HW146828   3.276   4.173   3.619  1.5204  0.3142 -1.3754
15129SOL    HW246829   3.317   4.308   3.673 -0.0160  0.2563  0.0352
15130SOL     OW46830   5.426   4.838   4.283 -0.0815 -0.1974  0.3717
15130SOL    HW146831   5.429   4.873   4.372  0.1549  0.2693  0.1880
15130SOL    HW246832   5.491   4.768   4.282 -1.4787 -1.5604  1.1122
15131SOL     OW46833   5.902   5.005   2.813 -0.1465 -0.1569 -0.3704
15131SOL    HW146834   5.916   4.924   2.765  0.2917 -0.2496 -0.0835
15131SOL    HW246835   5.806   5.013   2.819 -0.2142 -1.8525  1.6145
15132SOL     OW46836   4.863   4.303   4.431  0.3359  0.0775  0.3986
15132SOL    HW146837   4.782   4.265   4.396  0.2258  0.6812 -0.0188
15132SOL    HW246838   4.851   4.301   4.526 -0.2684  0.3570  0.3338
15133SOL     OW46839   5.068   4.783   5.825  0.0660 -0.0722 -0.1362
15133SOL    HW146840   4.993   4.809   5.878  0.4858  0.7638  0.0666
15133SOL    HW246841   5.037   4.708   5.775 -0.4240 -0.7001  1.0736
15134SOL     OW46842   4.609   5.590   4.757  0.5329 -0.1571  0.3637
15134SOL    HW146843   4.689   5.641   4.756  1.0336 -0.9284  0.2393
15134SOL    HW246844   4.587   5.583   4.850 -1.2234  2.8021  0.2968
15135SOL     OW46845   2.819   5.518   4.978 -0.0067 -0.3345 -0.0958
15135SOL    HW146846   2.793   5.473   4.898  1.3760 -0.1045 -0.7020
15135SOL    HW246847   2.857   5.600   4.948 -2.2098  1.1822  0.9765
15136SOL     OW46848   5.382   5.757   5.490  0.2238 -0.4522  0.2444
15136SOL    HW146849   5.420   5.717   5.412 -3.0230 -0.5939 -1.4359
15136SOL    HW246850   5.387   5.851   5.475  1.4662 -0.3982  0.8866
15137SOL     OW46851   5.545   4.893   4.554 -0.4011 -0.0962 -0.8361
15137SOL    HW146852   5.532   4.988   4.553  0.2733  0.0176 -0.1966
15137SOL    HW246853   5.502   4.865   4.635 -0.0480 -0.2371 -0.6936
15138SOL     OW46854   5.315   3.693   4.897  0.1953  0.0449 -0.6156
15138SOL    HW146855   5.298   3.738   4.815  0.1566  0.7282 -0.2414
15138SOL    HW246856   5.233   3.700   4.946  0.1087 -0.6529 -0.6502
15139SOL     OW46857   4.905   4.865   4.077  0.5945  0.0755  0.4309
15139SOL    HW146858   4.918   4.924   4.003 -2.0911  1.4187  0.8769
15139SOL    HW246859   4.993   4.847   4.110  1.9068 -0.6326 -3.0481
15140SOL     OW46860   4.346   5.426   5.009  0.7197  0.2887  0.0165
15140SOL    HW146861   4.330   5.363   4.939  1.8618  1.3001 -1.1971
15140SOL    HW246862   4.310   5.508   4.976 -0.3878  0.3971  1.4149
15141SOL     OW46863   5.669   5.694   3.227  0.4343  0.4357  0.0708
15141SOL    HW146864   5.712   5.741   3.155 -2.5982  0.8628 -1.5985
15141SOL    HW246865   5.648   5.608   3.191 -1.2981  0.7151  0.3209
15142SOL     OW46866   4.977   5.558   4.346 -0.8147  0.4769 -0.2790
15142SOL    HW146867   4.944   5.496   4.411 -0.9924  0.8476 -0.0137
15142SOL    HW246868   4.906   5.563   4.281  0.0455 -1.2020 -1.4297
15143SOL     OW46869   5.894   4.686   4.753  0.2346 -0.3587 -0.4012
15143SOL    HW146870   5.901   4.765   4.699 -1.5686  0.3861  0.3588
15143SOL    HW246871   5.933   4.711   4.837  0.2166 -0.4761 -0.3583
15144SOL     OW46872   5.841   3.713   7.014  0.2536  0.4192  0.1392
15144SOL    HW146873   5.796   3.751   6.938 -0.5162 -0.8697 -0.0811
15144SOL    HW246874   5.843   3.619   6.996 -0.4486  0.0030  1.9661
15145SOL     OW46875   4.772   4.610   5.937  0.3301 -0.2074 -0.4716
15145SOL    HW146876   4.762   4.660   5.856  0.6289 -0.4402 -0.6537
15145SOL    HW246877   4.682   4.587   5.962  0.1077  1.1361  0.0810
15146SOL     OW46878   5.592   5.136   4.217 -0.1854 -0.2672 -0.1013
15146SOL    HW146879   5.572   5.176   4.302  0.5493 -1.9770  0.9417
15146SOL    HW246880   5.522   5.072   4.204  0.8409 -1.5005  0.2785
15147SOL     OW46881   5.723   3.129   4.661 -0.5023  0.5046 -0.4633
15147SOL    HW146882   5.673   3.112   4.581 -2.1195  1.2199  0.3529
15147SOL    HW246883   5.680   3.205   4.700  1.3213  1.2141  0.2391
15148SOL     OW46884   4.366   6.062   4.908 -0.1855 -0.7055  0.7422
15148SOL    HW146885   4.314   6.025   4.979 -2.2108  0.4064 -0.0437
15148SOL    HW246886   4.371   6.156   4.928  1.9262 -0.8336  0.9902
15149SOL     OW46887   4.313   2.765   3.796 -0.0989 -0.8116 -0.4520
15149SOL    HW146888   4.247   2.759   3.865  1.0010 -1.9898  0.5459
15149SOL    HW246889   4.291   2.694   3.736 -0.8223 -0.0318 -1.1315
15150SOL     OW46890   5.360   4.183   6.112 -0.0725 -0.5293  0.0783
15150SOL    HW146891   5.275   4.141   6.124  0.5035 -1.4473  1.1305
15150SOL    HW246892   5.341   4.277   6.113 -0.9787 -0.7052  1.1867
15151SOL     OW46893   4.409   4.960   4.782  0.2849  0.1149  0.5035
15151SOL    HW146894   4.428   4.963   4.688 -0.8782  3.4548  0.2240
15151SOL    HW246895   4.482   5.006   4.822 -0.2127  0.4900  0.9900
15152SOL     OW46896   3.972   5.762   3.331  0.1834 -0.1068  0.5481
15152SOL    HW146897   3.993   5.777   3.238 -0.0427 -0.4871  0.4350
15152SOL    HW246898   3.898   5.822   3.348  0.2845  0.0302  0.5084
15153SOL     OW46899   4.195   3.524   5.528 -0.4358  0.1845 -0.8256
15153SOL    HW146900   4.135   3.501   5.457 -0.9011 -0.0122 -0.3784
15153SOL    HW246901   4.158   3.604   5.566 -0.0086  0.4718 -1.0125
15154SOL     OW46902   4.505   4.491   6.013  0.0524 -0.0429  0.0586
15154SOL    HW146903   4.560   4.429   6.061  0.1054 -0.7859 -0.9229
15154SOL    HW246904   4.418   4.450   6.010  0.3361 -0.6279 -1.5100
15155SOL     OW46905   3.908   3.233   7.573  0.1462  0.0436  0.1748
15155SOL    HW146906   3.908   3.315   7.621  0.7802 -0.0184  0.2863
15155SOL    HW246907   3.999   3.219   7.548  0.1487 -0.9193  0.6616
15156SOL     OW46908   6.113   3.906   9.159 -0.5613 -0.5909 -0.2217
15156SOL    HW146909   6.150   3.875   9.242 -0.4604 -0.2689 -0.1443
15156SOL    HW246910   6.021   3.883   9.164 -0.2570 -2.0285 -0.7054
15157SOL     OW46911   5.036   5.519   6.454 -0.5003  0.1286  0.2488
15157SOL    HW146912   5.066   5.479   6.536 -0.8895 -0.7192 -0.0102
15157SOL    HW246913   5.094   5.482   6.387 -0.0316  0.9992  0.1672
15158SOL     OW46914   5.119   5.617   5.853  0.5247 -0.2602 -0.6371
15158SOL    HW146915   5.190   5.575   5.804 -0.1192 -0.8744 -1.0589
15158SOL    HW246916   5.043   5.560   5.839 -0.6238  1.4903 -2.0057
15159SOL     OW46917   2.327   4.862   5.492  0.5598 -0.6409  0.0397
15159SOL    HW146918   2.408   4.912   5.505  1.2961 -1.7744  0.0231
15159SOL    HW246919   2.337   4.822   5.406  0.1282 -1.0328  0.1670
15160SOL     OW46920   6.208   5.217   7.705  0.1431 -0.2933 -0.4321
15160SOL    HW146921   6.128   5.193   7.750 -0.1186 -1.5270 -1.4834
15160SOL    HW246922   6.179   5.257   7.623  0.6096  1.7592  0.3399
15161SOL     OW46923   5.099   5.797   5.094  0.0515 -0.0659  0.3494
15161SOL    HW146924   5.158   5.866   5.065  2.2292 -1.7944  0.4542
15161SOL    HW246925   5.092   5.738   5.019 -0.9436 -0.2840  0.5970
15162SOL     OW46926   4.091   4.514   5.601  0.2389 -0.5793 -0.1690
15162SOL    HW146927   4.046   4.559   5.673  2.6321  1.4944  0.1687
15162SOL    HW246928   4.023   4.501   5.535 -0.8730  2.6863  0.1506
15163SOL     OW46929   4.965   4.327   7.019  0.3221  0.0034  0.3077
15163SOL    HW146930   4.960   4.343   7.113  2.1184 -0.7266  0.5674
15163SOL    HW246931   4.878   4.350   6.986 -0.3934  0.1166  2.1589
15164SOL     OW46932   4.256   4.961   6.386  0.2066 -0.5128 -0.6555
15164SOL    HW146933   4.338   4.917   6.406  0.0527 -0.9769 -1.0331
15164SOL    HW246934   4.189   4.894   6.398 -0.5005  0.6378  2.7785
15165SOL     OW46935   4.079   4.655   6.671  0.5816  0.4452  0.0392
15165SOL    HW146936   3.991   4.681   6.698  0.4278  0.5585 -0.5634
15165SOL    HW246937   4.137   4.723   6.705  0.3660  0.6978 -0.0989
15166SOL     OW46938   3.216   4.971   7.766  0.0346 -0.1914 -0.3098
15166SOL    HW146939   3.196   5.050   7.817  0.9001  0.3325 -0.7496
15166SOL    HW246940   3.153   4.973   7.694 -0.6247 -0.4696  0.2426
15167SOL     OW46941   4.600   5.447   6.604 -0.1625 -0.1989  0.1383
15167SOL    HW146942   4.625   5.364   6.563 -1.0154  0.0817 -1.0150
15167SOL    HW246943   4.660   5.511   6.566 -1.6125  0.2376 -1.5569
15168SOL     OW46944   5.398   3.912   8.329 -0.2575 -0.5608  0.1261
15168SOL    HW146945   5.345   3.979   8.373  0.6802  0.2654  0.0183
15168SOL    HW246946   5.338   3.873   8.265 -0.4909  1.0375 -0.6845
15169SOL     OW46947   3.599   4.695   6.525  0.1094  0.3378  0.0671
15169SOL    HW146948   3.651   4.629   6.479  0.1552 -0.0135  0.5998
15169SOL    HW246949   3.592   4.660   6.614  0.0917  1.0390  0.3420
15170SOL     OW46950   7.513   5.213   6.399  0.2911 -0.3393  0.1904
15170SOL    HW146951   7.565   5.269   6.342 -0.0851 -0.0548  0.1192
15170SOL    HW246952   7.536   5.240   6.488 -0.2703  0.3028  0.1565
15171SOL     OW46953   3.943   5.859   4.674 -0.1042  0.3211 -0.6013
15171SOL    HW146954   3.943   5.942   4.626  0.5198 -0.4941 -2.0742
15171SOL    HW246955   4.031   5.854   4.712  0.5122 -0.4628 -2.0346
15172SOL     OW46956   5.464   4.556   7.257 -0.0050  0.0046  0.2472
15172SOL    HW146957   5.407   4.564   7.334  0.7318 -0.6394  0.8754
15172SOL    HW246958   5.537   4.615   7.274  0.1878 -0.1797  0.0690
15173SOL     OW46959   6.829   5.150   5.687  0.3153 -0.1406  0.0714
15173SOL    HW146960   6.789   5.144   5.600  1.3332 -0.5354 -0.3878
15173SOL    HW246961   6.846   5.244   5.699 -1.3536  0.1312  0.5807
15174SOL     OW46962   3.718   3.780   7.802 -0.3869 -0.4073  0.1687
15174SOL    HW146963   3.629   3.816   7.796 -0.7029 -0.9894  1.2597
15174SOL    HW246964   3.709   3.702   7.856  0.9239 -0.0453  0.9336
15175SOL     OW46965   3.605   4.586   6.178 -0.2843 -0.7171  0.5964
15175SOL    HW146966   3.663   4.548   6.112 -0.5165  1.3525 -0.8801
15175SOL    HW246967   3.595   4.677   6.153 -1.6705 -0.2281  2.6255
15176SOL     OW46968   5.210   6.029   6.903  0.1995 -0.5537  0.4203
15176SOL    HW146969   5.258   6.103   6.866 -0.2446 -1.4443 -2.1894
15176SOL    HW246970   5.274   5.959   6.909 -0.1271 -0.9730 -0.5996
15177SOL     OW46971   3.844   4.749   6.767  0.2003 -0.0660  0.0561
15177SOL    HW146972   3.781   4.678   6.778  0.1761 -0.1068 -0.3270
15177SOL    HW246973   3.841   4.797   6.850 -1.9993  1.2868 -0.7321
15178SOL     OW46974   5.386   5.230   6.120 -0.1425  0.0770  0.4906
15178SOL    HW146975   5.441   5.178   6.178  0.3215  0.5378  0.4781
15178SOL    HW246976   5.318   5.170   6.090  1.2864 -0.9883 -0.7854
15179SOL     OW46977   5.165   6.723   7.104 -0.1937 -0.0185  0.4156
15179SOL    HW146978   5.217   6.668   7.046 -1.7462  1.2228 -2.3286
15179SOL    HW246979   5.076   6.715   7.071 -1.0598  1.2727  2.2682
15180SOL     OW46980   4.018   4.059   7.233 -0.7050 -0.3575  0.0676
15180SOL    HW146981   4.063   3.998   7.174 -0.8732 -0.5755  0.1652
15180SOL    HW246982   4.088   4.118   7.263 -0.4972 -0.6428  0.1507
15181SOL     OW46983   5.286   4.333   6.402  0.0735 -0.7257 -0.1734
15181SOL    HW146984   5.217   4.280   6.361  0.1314 -0.7216 -0.2742
15181SOL    HW246985   5.293   4.411   6.347  0.5243 -0.9690 -0.4626
15182SOL     OW46986   5.516   4.856   6.528  0.0876  0.3040 -0.1403
15182SOL    HW146987   5.492   4.766   6.550  0.2672  0.2838 -0.0207
15182SOL    HW246988   5.440   4.891   6.483  0.5672 -0.4106 -1.5988
15183SOL     OW46989   4.087   4.307   6.691 -0.4954  0.0215 -0.0050
15183SOL    HW146990   4.045   4.320   6.776  0.2062 -1.4522  0.6198
15183SOL    HW246991   4.035   4.238   6.649  1.5229 -2.3159  1.0544
15184SOL     OW46992   4.692   5.876   6.758 -0.1740 -0.4213  0.7676
15184SOL    HW146993   4.764   5.850   6.815  1.7685 -2.2292 -2.2035
15184SOL    HW246994   4.636   5.798   6.754 -2.0606  0.7540  2.5401
15185SOL     OW46995   5.450   4.278   6.642  0.3508 -0.1256 -0.0673
15185SOL    HW146996   5.394   4.343   6.600  0.1494 -0.6404 -0.6050
15185SOL    HW246997   5.390   4.223   6.693  0.6843  1.0542  1.6809
15186SOL     OW46998   5.214   4.625   6.236  0.2811  0.4223 -0.3994
15186SOL    HW146999   5.122   4.651   6.236  0.1224 -0.0785 -1.1781
15186SOL    HW247000   5.222   4.570   6.157  1.5029  1.4095 -0.9860
15187SOL     OW47001   4.324   4.573   5.737 -0.3090 -0.4106 -0.4896
15187SOL    HW147002   4.252   4.571   5.674 -1.4107 -0.8015  0.7157
15187SOL    HW247003   4.325   4.664   5.769 -1.1575 -0.7045  0.4308
15188SOL     OW47004   3.809   5.128   6.692 -0.2866 -0.5036 -0.7550
15188SOL    HW147005   3.882   5.074   6.662 -0.3471 -0.9465 -0.1127
15188SOL    HW247006   3.801   5.109   6.785 -1.4557 -0.7296 -0.8889
15189SOL     OW47007   4.753   4.785   5.685 -0.0374  0.5104 -0.1403
15189SOL    HW147008   4.678   4.817   5.636 -2.0246 -1.1709  1.6230
15189SOL    HW247009   4.804   4.736   5.621 -0.8278  1.0639 -1.2208
15190SOL     OW47010   5.745   5.687   7.547  0.3279 -0.0503 -0.1505
15190SOL    HW147011   5.746   5.700   7.452 -1.0396  1.1758 -0.0339
15190SOL    HW247012   5.785   5.766   7.582 -0.7442  0.2904  0.3373
15191SOL     OW47013   5.000   2.937   7.620  0.0877 -0.5089  0.0982
15191SOL    HW147014   4.994   2.998   7.695 -0.0114 -0.4347  0.0302
15191SOL    HW247015   4.912   2.900   7.612  0.0168 -0.2842 -0.1766
15192SOL     OW47016   4.746   5.520   6.165  0.1227  0.3685 -0.3565
15192SOL    HW147017   4.719   5.577   6.237 -2.3660 -1.4490  0.2689
15192SOL    HW247018   4.772   5.438   6.208  3.0624  0.6968 -1.2750
15193SOL     OW47019   4.260   5.823   7.133  0.6474 -0.5589  0.1480
15193SOL    HW147020   4.309   5.845   7.212 -3.3245 -0.8880  2.9886
15193SOL    HW247021   4.226   5.906   7.101 -1.0081 -0.7586  1.2604
15194SOL     OW47022   6.468   5.093   7.110 -0.0729  0.7378 -0.3921
15194SOL    HW147023   6.392   5.069   7.162 -0.5350  1.5189 -0.6966
15194SOL    HW247024   6.514   5.158   7.163  0.8096 -0.2758  0.1282
15195SOL     OW47025   5.165   4.210   7.313 -0.8220  0.1432  0.3864
15195SOL    HW147026   5.120   4.168   7.240  0.2317 -1.5633  0.6707
15195SOL    HW247027   5.258   4.201   7.293 -0.4910 -0.8167  2.1520
15196SOL     OW47028   3.825   5.434   6.200  0.1496  0.2820  0.0108
15196SOL    HW147029   3.763   5.418   6.271  0.7730 -0.2394  0.4600
15196SOL    HW247030   3.818   5.356   6.144 -0.1204  0.5533 -0.3393
15197SOL     OW47031   7.197   5.361   6.561 -0.1655  0.3012 -0.6925
15197SOL    HW147032   7.241   5.297   6.617  0.3123  0.6104 -0.7016
15197SOL    HW247033   7.124   5.393   6.613  0.4092  0.7550 -0.1401
15198SOL     OW47034   5.447   5.408   5.319  0.0146 -0.0382 -0.4203
15198SOL    HW147035   5.469   5.426   5.228 -0.2435 -0.6395 -0.6095
15198SOL    HW247036   5.442   5.313   5.324  0.1026 -0.0135  0.2423
15199SOL     OW47037   2.807   4.081   7.670  0.1601 -0.3289 -0.0323
15199SOL    HW147038   2.764   4.092   7.585  0.5755 -0.5105 -0.2665
15199SOL    HW247039   2.895   4.116   7.657  1.0711 -2.5619 -0.4065
15200SOL     OW47040   6.345   6.734   5.771  0.5372  0.1392  0.0903
15200SOL    HW147041   6.416   6.794   5.747 -0.1239  0.3394 -1.4716
15200SOL    HW247042   6.295   6.721   5.690 -1.7236  0.6650  1.3065
15201SOL     OW47043   3.255   5.459   4.629  0.2546  0.0532 -0.1446
15201SOL    HW147044   3.261   5.434   4.722  0.4377  0.5992 -0.0098
15201SOL    HW247045   3.336   5.506   4.612 -0.4139  1.2245 -0.1975
15202SOL     OW47046   3.876   4.317   5.760 -0.3170 -0.3395  0.2609
15202SOL    HW147047   3.812   4.371   5.715 -0.9977  1.1760  2.8186
15202SOL    HW247048   3.834   4.231   5.768 -0.1643 -0.6631 -1.8359
15203SOL     OW47049   2.770   6.188   7.878  0.3363  0.0474 -0.6162
15203SOL    HW147050   2.855   6.215   7.843 -0.1562  0.3059 -1.6665
15203SOL    HW247051   2.750   6.106   7.832  0.7114 -0.8451  0.7654
15204SOL     OW47052   3.986   4.201   6.309  0.3197  0.1662 -0.4801
15204SOL    HW147053   3.978   4.283   6.358 -1.4748  0.1588 -0.6759
15204SOL    HW247054   3.925   4.212   6.235 -0.7096 -1.7086  0.0441
15205SOL     OW47055   4.519   3.573   8.700  0.2951 -0.4289 -0.4983
15205SOL    HW147056   4.560   3.494   8.664  0.0019 -0.6674 -0.3162
15205SOL    HW247057   4.476   3.614   8.626  0.9858 -0.0991 -0.7183
15206SOL     OW47058   4.061   4.034   5.502 -0.5535 -0.2270 -0.4822
15206SOL    HW147059   3.999   4.104   5.523 -0.3022 -0.0340 -0.3787
15206SOL    HW247060   4.101   4.061   5.419 -2.0912 -1.3564 -1.6372
15207SOL     OW47061   6.645   5.927   5.935 -0.0035  0.8769 -0.0139
15207SOL    HW147062   6.557   5.949   5.907 -0.1213  0.9790  0.4310
15207SOL    HW247063   6.674   5.861   5.873 -0.2731  1.0757 -0.3519
15208SOL     OW47064   5.714   4.688   7.311 -0.3955  0.5162  0.4312
15208SOL    HW147065   5.746   4.615   7.365 -1.3899 -1.0099 -0.9705
15208SOL    HW247066   5.776   4.693   7.238  0.4294  1.9951  1.1700
15209SOL     OW47067   4.443   4.749   6.111  0.2772  0.1863  0.0146
15209SOL    HW147068   4.462   4.765   6.203 -0.6369  2.6527 -0.1528
15209SOL    HW247069   4.479   4.662   6.094 -0.2601 -0.7073  2.8785
15210SOL     OW47070   5.152   4.699   6.496  0.0028 -0.3440 -0.0294
15210SOL    HW147071   5.207   4.702   6.417  0.6387  0.6204  0.4186
15210SOL    HW247072   5.063   4.705   6.463  0.3085  1.8823 -0.6513
15211SOL     OW47073   4.193   4.043   5.925  0.3487  0.2587 -0.0471
15211SOL    HW147074   4.103   4.039   5.892  0.7028 -2.4390 -0.9145
15211SOL    HW247075   4.183   4.056   6.019 -1.1668 -2.8464  0.3553
15212SOL     OW47076   5.808   6.618   5.221 -0.4409 -0.3666 -0.0134
15212SOL    HW147077   5.753   6.541   5.235  1.5971 -1.9640 -0.3534
15212SOL    HW247078   5.845   6.605   5.134  3.3664 -1.3806  1.5540
15213SOL     OW47079   4.394   4.617   6.579  0.0347  0.1448  0.3775
15213SOL    HW147080   4.475   4.618   6.527 -0.0240  1.1336  0.3004
15213SOL    HW247081   4.377   4.708   6.599 -1.0831 -0.0494  0.3785
15214SOL     OW47082   5.781   6.432   4.864  0.3254  0.3284  0.2315
15214SOL    HW147083   5.831   6.505   4.900  0.1152  1.8757 -2.3840
15214SOL    HW247084   5.781   6.447   4.769 -1.0390 -2.2504 -0.2693
15215SOL     OW47085   4.294   3.793   5.088 -0.0009 -0.5177  0.1754
15215SOL    HW147086   4.302   3.785   4.993  2.1280 -1.3551  0.3776
15215SOL    HW247087   4.367   3.849   5.114 -1.0521  0.4028  1.2695
15216SOL     OW47088   3.450   4.189   6.650 -0.0631  0.2863  0.4561
15216SOL    HW147089   3.472   4.281   6.664 -2.2329  0.9790 -0.2715
15216SOL    HW247090   3.486   4.169   6.564 -0.6549  0.8354  0.0744
15217SOL     OW47091   4.617   4.012   5.781  0.2832 -0.1598  0.0103
15217SOL    HW147092   4.709   3.998   5.804  0.3702 -1.5088 -0.9949
15217SOL    HW247093   4.588   3.926   5.748 -0.2947  1.1316 -3.1857
15218SOL     OW47094   4.952   6.271   6.394 -0.7465  0.4774  0.2040
15218SOL    HW147095   5.009   6.220   6.338 -0.5104  2.2254 -1.2675
15218SOL    HW247096   4.868   6.272   6.347 -0.6017  1.7907 -0.0715
15219SOL     OW47097   5.781   5.371   4.958  0.4762 -0.2534  0.0391
15219SOL    HW147098   5.825   5.409   5.034  1.9408 -0.2981 -0.7564
15219SOL    HW247099   5.844   5.308   4.923  0.5816  1.0559 -2.2795
15220SOL     OW47100   5.197   4.415   6.050 -0.4273  0.1231  0.0270
15220SOL    HW147101   5.115   4.389   6.008 -0.3968  0.4846 -0.2721
15220SOL    HW247102   5.247   4.456   5.979 -1.3152  2.9075  0.8670
15221SOL     OW47103   5.522   3.888   4.279  0.2099  0.2154 -0.4004
15221SOL    HW147104   5.522   3.950   4.352  3.3442  1.8321 -1.5662
15221SOL    HW247105   5.483   3.937   4.206  0.4474 -0.0593 -0.7119
15222SOL     OW47106   3.957   3.193   5.006 -0.4105 -0.0836  0.1534
15222SOL    HW147107   3.911   3.149   4.934  0.2341  1.9633 -1.6299
15222SOL    HW247108   3.889   3.217   5.068 -1.1786 -0.6269 -0.4658
15223SOL     OW47109   5.575   6.445   8.343  0.0540 -0.0623 -0.1442
15223SOL    HW147110   5.534   6.526   8.314 -0.2009 -0.6402 -1.4373
15223SOL    HW247111   5.618   6.410   8.265 -0.3198 -1.4656  0.2556
15224SOL     OW47112   3.758   6.434   7.857 -0.5114 -0.3712 -0.2815
15224SOL    HW147113   3.845   6.464   7.881 -0.4257 -0.7351 -0.1343
15224SOL    HW247114   3.699   6.487   7.910 -0.4438  0.7070 -1.2320
15225SOL     OW47115   4.851   5.758   7.018  0.9980 -0.0004 -0.0849
15225SOL    HW147116   4.886   5.697   6.953  1.2122 -0.4779  0.4705
15225SOL    HW247117   4.907   5.745   7.095  0.1388 -0.1394  0.5258
15226SOL     OW47118   4.224   5.406   6.963 -0.2144  0.1658  0.1517
15226SOL    HW147119   4.153   5.377   6.906  0.4584  1.7370 -1.6072
15226SOL    HW247120   4.301   5.408   6.906  0.7897  0.5054  1.4792
15227SOL     OW47121   5.789   3.659   7.569  0.9016 -0.0667 -0.3262
15227SOL    HW147122   5.760   3.582   7.521 -0.2795  0.4602 -0.4915
15227SOL    HW247123   5.822   3.718   7.500  1.4037 -0.2475 -0.2435
15228SOL     OW47124   5.160   6.505   6.785  0.4261  0.0631  0.0269
15228SOL    HW147125   5.113   6.570   6.732  2.2585  1.4118 -0.0574
15228SOL    HW247126   5.091   6.448   6.819 -1.2537  1.8056 -0.2240
15229SOL     OW47127   3.864   4.941   6.114  0.3514 -0.1516  0.4644
15229SOL    HW147128   3.774   4.910   6.107 -0.0513 -0.2666  4.3177
15229SOL    HW247129   3.908   4.903   6.038 -2.6811 -0.5430 -1.2376
15230SOL     OW47130   4.531   4.931   5.918  0.0260  0.4609 -0.2789
15230SOL    HW147131   4.533   4.868   5.991 -0.3995  0.7920  0.0243
15230SOL    HW247132   4.461   4.899   5.861  0.5175  0.0676 -0.6722
15231SOL     OW47133   3.975   4.536   6.183  0.2922  0.1548 -0.3458
15231SOL    HW147134   3.907   4.548   6.117 -1.6178 -2.5949  0.9311
15231SOL    HW247135   4.054   4.570   6.142 -0.8308 -1.0786 -3.9420
15232SOL     OW47136   4.668   4.291   6.181 -0.0395  0.1357  0.0245
15232SOL    HW147137   4.609   4.236   6.129 -0.0767  0.5622 -0.3871
15232SOL    HW247138   4.754   4.251   6.171 -0.2079 -0.3416  0.4202
15233SOL     OW47139   5.286   4.978   6.400  0.2770 -0.0873 -0.1846
15233SOL    HW147140   5.195   4.960   6.374 -0.1115 -2.6428  2.4317
15233SOL    HW247141   5.277   5.038   6.475  0.6890 -0.8603  0.4911
15234SOL     OW47142   4.395   5.546   6.408 -0.3362 -0.5232 -0.1263
15234SOL    HW147143   4.403   5.470   6.467 -3.4803 -0.7110  0.2420
15234SOL    HW247144   4.305   5.541   6.376  0.3120  1.3992 -2.4959
15235SOL     OW47145   5.750   3.908   5.908  0.6322  0.0019 -0.3069
15235SOL    HW147146   5.763   3.877   5.818 -0.9282  0.7212 -0.8158
15235SOL    HW247147   5.657   3.927   5.913  1.0971  2.3016  0.7117
15236SOL     OW47148   5.653   3.709   6.545 -0.4512  0.1939 -0.3411
15236SOL    HW147149   5.674   3.744   6.631 -1.2303  1.1104 -0.5003
15236SOL    HW247150   5.663   3.614   6.554  0.7895  0.3685  0.3695
15237SOL     OW47151   3.991   4.015   6.680 -0.9294 -0.0757  0.8009
15237SOL    HW147152   3.976   3.972   6.595  1.2720  1.3389 -0.3946
15237SOL    HW247153   4.038   3.949   6.732  2.3330  0.5936 -0.9812
15238SOL     OW47154   5.190   4.760   5.274 -0.1558 -0.0331 -0.0356
15238SOL    HW147155   5.124   4.691   5.279  0.3264 -0.5100 -0.1548
15238SOL    HW247156   5.272   4.716   5.295  0.0111  0.7384  1.0597
15239SOL     OW47157   4.808   4.973   6.501 -0.0132  0.2043 -0.8462
15239SOL    HW147158   4.819   4.885   6.538  1.2476  1.2177  1.3935
15239SOL    HW247159   4.869   4.976   6.428  1.0799 -0.3503  0.0020
15240SOL     OW47160   3.873   4.286   7.207 -0.1047 -0.1274  0.3122
15240SOL    HW147161   3.917   4.336   7.275 -1.2053 -0.3634  1.2152
15240SOL    HW247162   3.913   4.199   7.211 -0.2428 -0.1709  0.7274
15241SOL     OW47163   5.624   4.535   8.430 -0.1286  0.2792 -0.1873
15241SOL    HW147164   5.578   4.562   8.351  0.3842 -1.5308 -1.1607
15241SOL    HW247165   5.671   4.613   8.459 -1.6279  1.4043 -0.7248
15242SOL     OW47166   5.810   4.837   5.902 -0.2652 -0.1392  0.0260
15242SOL    HW147167   5.749   4.903   5.934 -0.2001  0.0214 -0.1853
15242SOL    HW247168   5.839   4.791   5.981  0.4889  0.7626  0.2911
15243SOL     OW47169   4.350   5.912   5.917 -0.2909 -0.6280  0.2925
15243SOL    HW147170   4.435   5.941   5.951  0.5159 -1.4453 -0.9610
15243SOL    HW247171   4.291   5.985   5.936  1.0826  0.7261 -0.3939
15244SOL     OW47172   5.637   5.658   9.422 -0.3362  0.5905 -0.1474
15244SOL    HW147173   5.722   5.670   9.465 -0.5014 -0.2374  0.4379
15244SOL    HW247174   5.646   5.576   9.374 -0.9716  0.2150  0.3596
15245SOL     OW47175   4.750   3.681   5.579 -0.1933  0.0640 -0.1149
15245SOL    HW147176   4.814   3.746   5.550 -1.2465  1.3880  0.4515
15245SOL    HW247177   4.763   3.674   5.673 -1.4146  0.9632  0.1374
15246SOL     OW47178   5.048   4.255   5.505  0.0492 -0.2953  0.3866
15246SOL    HW147179   5.098   4.175   5.496 -0.0911 -0.3082 -0.3359
15246SOL    HW247180   5.109   4.325   5.479 -0.5013 -0.3736 -1.2463
15247SOL     OW47181   4.899   5.085   6.751 -0.9545  0.8739 -0.0271
15247SOL    HW147182   4.976   5.030   6.734 -0.1150  1.9812  0.1063
15247SOL    HW247183   4.834   5.053   6.689 -0.1099  0.4573 -0.7282
15248SOL     OW47184   4.197   4.671   6.036 -0.5336 -0.2593  0.8886
15248SOL    HW147185   4.245   4.589   6.036 -2.7115 -1.6266  2.4302
15248SOL    HW247186   4.265   4.739   6.037  1.4084 -1.8479 -2.6023
15249SOL     OW47187   3.785   4.145   6.767 -0.1209 -0.1205  0.4996
15249SOL    HW147188   3.721   4.084   6.804 -0.5472  0.6932  1.1414
15249SOL    HW247189   3.855   4.089   6.733 -0.8921 -0.9976  0.3143
15250SOL     OW47190   4.012   4.700   5.811 -0.1050  0.6550  0.1511
15250SOL    HW147191   4.002   4.793   5.791  1.8901  0.9036  0.0201
15250SOL    HW247192   4.059   4.698   5.894 -0.6865 -0.2518  0.4681
15251SOL     OW47193   5.873   4.929   7.474  0.2732 -0.7251 -0.5631
15251SOL    HW147194   5.959   4.916   7.513 -0.6310  0.6830  2.1490
15251SOL    HW247195   5.856   5.023   7.482 -1.6686 -1.0261 -0.6431
15252SOL     OW47196   2.508   4.303   6.695  0.0825 -0.2375 -0.2798
15252SOL    HW147197   2.587   4.295   6.642 -0.6249 -2.9097 -1.1119
15252SOL    HW247198   2.461   4.377   6.657  2.0509  1.3280  0.1540
15253SOL     OW47199   3.686   3.870   6.709  0.4667  0.1364 -0.3463
15253SOL    HW147200   3.612   3.885   6.650  0.8589  0.7981 -0.6807
15253SOL    HW247201   3.727   3.790   6.675 -1.2467 -1.4448  1.0543
15254SOL     OW47202   5.262   7.063   5.254  0.4585  0.8620 -0.1719
15254SOL    HW147203   5.275   7.027   5.166  0.4226 -1.2462  0.6470
15254SOL    HW247204   5.216   6.994   5.302  0.3177  2.0411  1.4663
15255SOL     OW47205   4.394   4.265   5.764  0.2610 -0.1144  0.1709
15255SOL    HW147206   4.371   4.352   5.794  0.7847 -0.3684  1.3861
15255SOL    HW247207   4.312   4.216   5.766 -0.2378  0.5925 -1.5040
15256SOL     OW47208   5.177   2.952   6.734  0.2775 -0.1190  0.1833
15256SOL    HW147209   5.205   2.868   6.771 -0.5194 -0.3236  0.3447
15256SOL    HW247210   5.250   3.011   6.751  0.7354 -0.7109  0.3154
15257SOL     OW47211   4.057   5.041   6.629 -0.2439  0.7662  0.1361
15257SOL    HW147212   4.147   5.009   6.629 -0.9362 -1.3308  0.3127
15257SOL    HW247213   4.013   4.986   6.564 -1.7909  0.5041  1.3699
15258SOL     OW47214   4.136   4.303   5.788 -0.0221 -0.0920  0.9096
15258SOL    HW147215   4.150   4.348   5.705 -0.7775  0.9591  1.3265
15258SOL    HW247216   4.042   4.308   5.803  0.0464 -0.6571  1.6213
15259SOL     OW47217   5.735   4.283   6.581 -0.2010  0.7062 -0.3439
15259SOL    HW147218   5.759   4.191   6.594  1.1494  1.1332  0.5131
15259SOL    HW247219   5.643   4.288   6.605 -0.3222 -0.4402 -0.5118
15260SOL     OW47220   5.583   6.091   6.171 -0.4458  0.5786  0.1786
15260SOL    HW147221   5.504   6.116   6.123 -1.8966 -2.1694  0.9191
15260SOL    HW247222   5.637   6.047   6.105  0.2041  1.8411 -0.1649
15261SOL     OW47223   5.416   6.114   8.010  0.2243  0.8998 -0.7861
15261SOL    HW147224   5.416   6.022   8.035  1.4257  1.1901  0.4202
15261SOL    HW247225   5.419   6.161   8.093  1.0576  2.0028 -1.4168
15262SOL     OW47226   4.859   5.040   5.221 -0.3239  0.0068 -0.1434
15262SOL    HW147227   4.889   4.992   5.144 -1.6024  0.9493 -1.2817
15262SOL    HW247228   4.764   5.046   5.210 -0.6677 -0.6464  2.0125
15263SOL     OW47229   3.343   4.741   6.412  0.6372 -0.4844  0.2937
15263SOL    HW147230   3.317   4.655   6.378  0.1664 -0.9373  1.7168
15263SOL    HW247231   3.423   4.724   6.461 -0.3207 -0.4458  1.9374
15264SOL     OW47232   5.409   5.558   5.882  0.5076  0.0057  0.7173
15264SOL    HW147233   5.379   5.467   5.874 -0.5209  0.2845  1.2878
15264SOL    HW247234   5.364   5.592   5.959  0.9930  0.9667  0.5963
15265SOL     OW47235   5.774   2.004   7.412 -0.0830 -0.5878 -0.6377
15265SOL    HW147236   5.864   1.991   7.383 -0.3591 -1.0328 -1.3133
15265SOL    HW247237   5.766   2.099   7.422 -0.0201 -0.3929 -2.2047
15266SOL     OW47238   5.742   6.550   6.216 -0.6123 -0.5083  0.0121
15266SOL    HW147239   5.717   6.567   6.125 -0.3999 -0.0107  0.0426
15266SOL    HW247240   5.830   6.513   6.210 -0.5626 -0.3921  0.0182
15267SOL     OW47241   2.781   5.134   7.792  0.0416  0.2339  0.4167
15267SOL    HW147242   2.858   5.191   7.799  0.2435 -0.1211  1.2974
15267SOL    HW247243   2.721   5.167   7.859  0.7388 -1.4121  1.9476
15268SOL     OW47244   5.007   3.863   7.084 -0.2155 -0.1632  0.5816
15268SOL    HW147245   5.073   3.840   7.150 -1.4174 -0.1148  1.8386
15268SOL    HW247246   4.956   3.783   7.072  2.9956 -2.0035 -4.2179
15269SOL     OW47247   3.140   5.130   4.693 -0.4521 -0.5068 -0.6804
15269SOL    HW147248   3.096   5.132   4.608 -0.1127 -0.8530 -0.8706
15269SOL    HW247249   3.225   5.172   4.677 -1.1652  1.2763 -0.0318
15270SOL     OW47250   7.085   4.160   7.209  0.4279  0.1584 -0.1285
15270SOL    HW147251   7.003   4.179   7.162  0.9331  3.2858  0.0114
15270SOL    HW247252   7.094   4.065   7.205 -2.4899 -0.1733 -1.3409
15271SOL     OW47253   5.807   5.028   6.709  0.3056 -0.1498 -0.2452
15271SOL    HW147254   5.846   4.958   6.658 -0.5127 -1.0393  0.3162
15271SOL    HW247255   5.758   5.081   6.646  0.6149 -0.3011 -0.6123
15272SOL     OW47256   4.230   4.405   6.013 -0.7455  0.0764  0.5086
15272SOL    HW147257   4.159   4.380   6.072 -0.9594 -0.3389  0.0883
15272SOL    HW247258   4.204   4.369   5.928 -0.9778  1.5950 -0.0981
15273SOL     OW47259   4.959   5.640   5.537 -0.2882  0.3994  0.1289
15273SOL    HW147260   4.962   5.610   5.628 -2.0961 -2.0810 -0.5282
15273SOL    HW247261   4.872   5.615   5.506  0.4574  0.6778 -2.4345
15274SOL     OW47262   6.696   4.439   7.429 -0.6363 -0.1148  0.1161
15274SOL    HW147263   6.759   4.487   7.483 -0.0869  0.6472 -1.1575
15274SOL    HW247264   6.616   4.491   7.432 -0.7970 -0.3745  0.6250
15275SOL     OW47265   6.284   5.392   6.653 -0.0841 -0.4144 -0.1499
15275SOL    HW147266   6.350   5.370   6.587 -1.0862 -2.9611 -0.4322
15275SOL    HW247267   6.201   5.373   6.611 -0.8756  0.2626  1.0580
15276SOL     OW47268   5.553   5.382   6.993  0.4967  0.1693 -0.6908
15276SOL    HW147269   5.595   5.300   6.965  1.6212  0.8586 -1.0684
15276SOL    HW247270   5.546   5.374   7.088  0.7353 -0.3042 -0.7086
15277SOL     OW47271   4.868   4.663   5.455 -0.6820  0.1615 -0.1748
15277SOL    HW147272   4.919   4.640   5.378  1.3946  0.9828  0.8689
15277SOL    HW247273   4.796   4.716   5.422 -0.5140 -0.4812 -1.6384
15278SOL     OW47274   5.755   2.221   8.444 -0.3072  0.1966 -0.4730
15278SOL    HW147275   5.787   2.195   8.530 -2.4192 -0.2226  0.2388
15278SOL    HW247276   5.743   2.316   8.450 -1.8236 -0.0121  0.2256
15279SOL     OW47277   6.032   6.443   6.188 -0.1352 -0.0426  0.1773
15279SOL    HW147278   6.079   6.413   6.111  3.2063 -0.4860  2.1735
15279SOL    HW247279   5.999   6.363   6.229  0.1713 -0.0499  0.4145
15280SOL     OW47280   4.816   5.267   6.282  0.6441  0.0205  1.0333
15280SOL    HW147281   4.758   5.231   6.214  0.4609 -0.8719  1.6394
15280SOL    HW247282   4.838   5.191   6.336  1.2404  0.6201  1.6432
15281SOL     OW47283   5.337   6.547   7.297 -0.0469 -0.0693  0.3061
15281SOL    HW147284   5.277   6.613   7.262  0.3438  1.0324  1.6485
15281SOL    HW247285   5.303   6.528   7.384 -0.6221 -2.2839 -0.3351
15282SOL     OW47286   6.217   4.886   8.252  0.7719 -0.4014  0.3841
15282SOL    HW147287   6.256   4.802   8.277  0.2446 -0.6906  0.2622
15282SOL    HW247288   6.147   4.900   8.317  1.5630  0.4943  1.0793
15283SOL     OW47289   3.006   5.697   6.551  0.4723  0.1496 -0.0183
15283SOL    HW147290   3.069   5.625   6.557  0.5641  0.2420  0.1393
15283SOL    HW247291   2.921   5.654   6.544  0.5601  0.0235 -0.3015
15284SOL     OW47292   6.692   6.689   4.689 -0.0368  0.2528  0.0122
15284SOL    HW147293   6.614   6.638   4.708  0.3885 -0.7438 -0.7823
15284SOL    HW247294   6.723   6.719   4.774 -0.9326  0.1473  0.3872
15285SOL     OW47295   4.475   4.431   6.334  0.3682  0.1880 -0.4018
15285SOL    HW147296   4.528   4.380   6.273 -1.3640  0.3454 -2.1386
15285SOL    HW247297   4.535   4.495   6.371  2.2957 -2.1781  0.8239
15286SOL     OW47298   6.545   3.168   6.365 -0.6547  0.2525 -0.3226
15286SOL    HW147299   6.479   3.114   6.322 -0.3426 -0.3306 -0.0835
15286SOL    HW247300   6.616   3.176   6.301 -0.2027 -0.5916  0.0530
15287SOL     OW47301   6.588   5.572   7.652 -0.0920 -0.1711 -0.3193
15287SOL    HW147302   6.621   5.516   7.721  2.9368 -1.2242 -2.4317
15287SOL    HW247303   6.528   5.633   7.697  1.9059 -0.5544  3.2218
15288SOL     OW47304   5.120   5.066   7.469 -0.0911  0.5030 -0.1256
15288SOL    HW147305   5.040   5.015   7.482 -0.9581  1.5088 -1.2595
15288SOL    HW247306   5.178   5.008   7.420 -0.5358  0.1239 -0.2109
15289SOL     OW47307   6.277   4.061   5.162 -0.1072 -0.2574 -0.1438
15289SOL    HW147308   6.215   4.121   5.204 -0.1336 -2.3474  3.0848
15289SOL    HW247309   6.236   4.039   5.078 -2.2879  0.6780  0.6051
15290SOL     OW47310   6.992   5.430   6.746 -0.4480  0.3057  0.0076
15290SOL    HW147311   6.982   5.376   6.824  0.3215 -3.9044 -2.4761
15290SOL    HW247312   6.909   5.419   6.699  0.1916  0.1478 -1.1337
15291SOL     OW47313   4.120   3.792   5.578  0.2089 -0.1718 -0.1612
15291SOL    HW147314   4.100   3.880   5.546 -0.7523 -0.5286 -0.6021
15291SOL    HW247315   4.187   3.805   5.645  1.4933  0.7129 -1.5430
15292SOL     OW47316   5.398   3.454   7.736 -0.7858  0.5858  0.0755
15292SOL    HW147317   5.350   3.379   7.702 -2.5147  1.6527  0.0786
15292SOL    HW247318   5.353   3.478   7.817 -0.0550  1.4118  0.2563
15293SOL     OW47319   3.910   3.778   5.339  0.2775  0.2196  0.3466
15293SOL    HW147320   3.969   3.828   5.394 -0.0930 -0.4176  1.3472
15293SOL    HW247321   3.939   3.687   5.349 -0.6926 -0.0711  0.6394
15294SOL     OW47322   4.949   4.364   5.945  0.2175  0.1195 -0.8414
15294SOL    HW147323   4.880   4.430   5.947 -0.0795 -0.2155  0.1500
15294SOL    HW247324   4.923   4.299   6.010  1.0518 -0.4327 -1.0406
15295SOL     OW47325   5.645   5.345   6.123 -0.4498 -0.0281 -0.7830
15295SOL    HW147326   5.679   5.278   6.063 -0.5537 -0.5792 -0.2265
15295SOL    HW247327   5.551   5.347   6.106 -0.2441  1.1938 -2.0127
15296SOL     OW47328   4.946   3.771   6.688  0.0954  0.4703  0.6562
15296SOL    HW147329   4.982   3.836   6.628  2.7779 -2.2425 -0.9849
15296SOL    HW247330   4.852   3.789   6.691 -0.1651  1.0989 -4.0733
15297SOL     OW47331   4.590   5.167   6.099 -0.7357 -0.0292 -0.1377
15297SOL    HW147332   4.549   5.122   6.024 -2.0854  0.7483  0.0872
15297SOL    HW247333   4.522   5.167   6.166 -0.5107  1.6135  0.1420
15298SOL     OW47334   5.614   6.140   5.837  0.0916  0.4257  0.2836
15298SOL    HW147335   5.532   6.135   5.788  0.0535 -0.1132  0.3883
15298SOL    HW247336   5.612   6.226   5.879  0.8145  1.5136 -1.8165
15299SOL     OW47337   4.881   3.935   5.896  0.5432  0.5906  0.4250
15299SOL    HW147338   4.827   3.858   5.880 -2.9298  3.1298 -1.5134
15299SOL    HW247339   4.874   3.951   5.990 -0.3812 -0.3238  0.5223
15300SOL     OW47340   5.713   4.454   6.337 -0.2336 -0.4164 -0.6823
15300SOL    HW147341   5.623   4.486   6.340  0.2844  1.2041 -1.1223
15300SOL    HW247342   5.722   4.398   6.415 -1.3079  0.2760 -0.0378
15301SOL     OW47343   4.855   5.353   5.118  0.1790 -0.6253  0.4581
15301SOL    HW147344   4.787   5.296   5.154 -1.1264 -1.0020 -2.3201
15301SOL    HW247345   4.937   5.319   5.155 -0.8291 -2.5239  1.0797
15302SOL     OW47346   6.083   4.882   8.507  0.4118  0.1835 -0.0671
15302SOL    HW147347   6.166   4.835   8.522  0.9069  0.6771 -1.1438
15302SOL    HW247348   6.056   4.910   8.594  0.6845 -1.1265  0.4677
15303SOL     OW47349   6.349   4.738   8.567 -0.9580 -0.0526  0.0663
15303SOL    HW147350   6.443   4.736   8.546 -0.8517  1.6598  0.2439
15303SOL    HW247351   6.342   4.694   8.652 -0.2289  0.3453  0.3377
15304SOL     OW47352   5.542   5.469   9.202  0.2177  0.0510 -0.0408
15304SOL    HW147353   5.597   5.537   9.162 -0.4172  0.0318 -0.9736
15304SOL    HW247354   5.478   5.447   9.134 -0.5581 -0.3662  0.8050
15305SOL     OW47355   3.706   4.132  10.181 -0.4417  0.3370  0.1025
15305SOL    HW147356   3.727   4.082  10.102  1.6323 -0.9360  1.3605
15305SOL    HW247357   3.627   4.181  10.159 -1.4256 -1.9669 -1.8853
15306SOL     OW47358   4.735   7.037   9.613  0.6931  0.7097  0.2891
15306SOL    HW147359   4.778   6.963   9.569 -1.2119  0.2112 -0.8435
15306SOL    HW247360   4.793   7.057   9.686  1.1293 -2.1438  0.8755
15307SOL     OW47361   5.023   3.243   8.503  0.3195 -0.4681 -1.0862
15307SOL    HW147362   5.033   3.261   8.410  1.7270  1.0749 -0.6723
15307SOL    HW247363   4.970   3.315   8.536  2.5368  0.8091 -0.1458
15308SOL     OW47364   5.509   4.573   8.755 -0.4603  0.0014 -0.2298
15308SOL    HW147365   5.450   4.615   8.694 -2.0237  0.5743  1.5784
15308SOL    HW247366   5.597   4.602   8.729 -1.2779  2.2760 -0.6391
15309SOL     OW47367   5.367   4.936   7.745  0.1943 -0.0980 -0.2128
15309SOL    HW147368   5.286   4.886   7.753  1.0033 -1.5903 -0.7038
15309SOL    HW247369   5.434   4.878   7.782  1.1440  0.7584 -0.5350
15310SOL     OW47370   5.089   4.878  10.065 -1.1259  0.1007  0.0857
15310SOL    HW147371   5.138   4.806  10.027  0.2434  0.5486  0.9524
15310SOL    HW247372   5.034   4.910   9.993  1.4418  0.9805 -1.6338
15311SOL     OW47373   3.582   5.444   9.660 -0.8712 -0.1759  0.1668
15311SOL    HW147374   3.564   5.397   9.579  0.2321 -1.1741  0.4624
15311SOL    HW247375   3.666   5.487   9.645 -0.5667 -0.5149  0.8185
15312SOL     OW47376   5.076   7.247   9.459 -0.1063 -0.2593  0.2442
15312SOL    HW147377   5.165   7.263   9.427  0.4592 -1.4604  1.1605
15312SOL    HW247378   5.086   7.181   9.527 -1.3431  1.5434  2.3382
15313SOL     OW47379   5.088   5.854   6.672  0.0146 -0.0648 -0.3869
15313SOL    HW147380   5.008   5.900   6.697 -0.1843 -0.7305  0.2547
15313SOL    HW247381   5.159   5.911   6.700 -0.2366  0.5784 -1.0509
15314SOL     OW47382   4.637   5.288   8.943 -0.2288  0.1478 -0.2848
15314SOL    HW147383   4.607   5.346   9.012  1.0482 -0.6202  0.9781
15314SOL    HW247384   4.644   5.202   8.985 -0.3107 -0.5302 -1.6149
15315SOL     OW47385   5.923   4.407   7.124  0.1122  0.2664  1.0055
15315SOL    HW147386   5.866   4.389   7.049 -0.5554  0.1471  1.5316
15315SOL    HW247387   5.909   4.333   7.183 -0.2581  0.9335  1.7729
15316SOL     OW47388   5.884   6.220   8.343  0.1989  0.2165  0.3722
15316SOL    HW147389   5.887   6.242   8.436 -1.3958  0.6140  0.3434
15316SOL    HW247390   5.963   6.261   8.307  1.0021 -0.1986  1.5746
15317SOL     OW47391   6.326   3.616   6.345 -0.0668 -0.7182  0.0481
15317SOL    HW147392   6.243   3.636   6.390  0.9216  0.1127  1.5860
15317SOL    HW247393   6.361   3.541   6.392  0.2077 -0.8759 -0.4076
15318SOL     OW47394   6.152   4.198   8.709 -0.2486 -0.0977  0.6340
15318SOL    HW147395   6.198   4.260   8.764  0.0972  0.9594 -0.7837
15318SOL    HW247396   6.148   4.117   8.761 -0.0412  0.8680  2.2094
15319SOL     OW47397   4.906   4.096   8.215 -0.0509  0.0089  0.1266
15319SOL    HW147398   4.867   4.041   8.147  0.4567 -1.8512  1.2773
15319SOL    HW247399   4.868   4.183   8.201  2.5634  0.7115 -4.7391
15320SOL     OW47400   5.036   3.510   8.115 -0.3917  0.7658 -0.0549
15320SOL    HW147401   5.027   3.548   8.028  1.8243 -0.4846 -0.8849
15320SOL    HW247402   4.974   3.560   8.169 -1.5772  1.7844 -2.2383
15321SOL     OW47403   5.393   3.794   7.845  0.1040  0.1381  0.6089
15321SOL    HW147404   5.319   3.849   7.871 -0.1297 -0.0386  0.3232
15321SOL    HW247405   5.375   3.708   7.884  0.2733  0.1571  0.7306
15322SOL     OW47406   4.468   5.616   8.930 -0.3434  0.0564  0.0734
15322SOL    HW147407   4.470   5.534   8.979 -0.1789 -0.5450 -0.9120
15322SOL    HW247408   4.560   5.644   8.925 -0.2839 -0.2281 -0.4512
15323SOL     OW47409   2.159   3.003  11.232  0.0060 -0.2529 -0.4659
15323SOL    HW147410   2.203   2.986  11.148  1.9851 -1.0923  0.6869
15323SOL    HW247411   2.186   3.091  11.257  1.7378 -1.0341  0.5922
15324SOL     OW47412   3.878   5.883   8.132  0.1163  0.0729 -0.4884
15324SOL    HW147413   3.910   5.870   8.222 -1.0398 -2.3693 -0.3605
15324SOL    HW247414   3.942   5.942   8.092  0.8090  1.0070  1.8349
15325SOL     OW47415   6.057   5.869   7.310  0.0494  0.5949 -0.4004
15325SOL    HW147416   6.039   5.797   7.370  0.9852  1.0140  0.4159
15325SOL    HW247417   5.986   5.931   7.325 -0.5116  0.0549 -0.7811
15326SOL     OW47418   4.492   3.971   8.735  0.4850  0.1948 -0.1983
15326SOL    HW147419   4.559   3.917   8.777  0.5982  0.3380 -0.1940
15326SOL    HW247420   4.410   3.943   8.775  0.5752  0.2207  0.0054
15327SOL     OW47421   3.207   5.339   7.127 -0.0780  0.4615 -0.1454
15327SOL    HW147422   3.146   5.269   7.105 -0.9685  0.4605  2.0654
15327SOL    HW247423   3.281   5.295   7.167 -0.0962  0.6844  0.1375
15328SOL     OW47424   4.021   4.221   9.865  0.7295  0.4530 -0.0631
15328SOL    HW147425   4.115   4.235   9.856  1.1192 -2.0129 -0.8509
15328SOL    HW247426   4.010   4.127   9.849 -1.7580  0.4877  1.0071
15329SOL     OW47427   5.416   3.689   9.372 -0.4471 -0.3782 -0.1352
15329SOL    HW147428   5.508   3.663   9.384 -0.4158 -1.4351 -2.2309
15329SOL    HW247429   5.418   3.749   9.298 -1.0736  2.4977  2.0070
15330SOL     OW47430   4.081   4.098  10.643  0.3079 -0.4845  0.0907
15330SOL    HW147431   4.162   4.096  10.693 -1.1721  1.4408  2.7898
15330SOL    HW247432   4.101   4.156  10.569  1.5782 -0.6414  0.2831
15331SOL     OW47433   3.763   4.057   7.764 -0.4427 -0.8004 -0.0025
15331SOL    HW147434   3.698   4.026   7.827 -2.9563  1.3947 -1.3267
15331SOL    HW247435   3.727   4.139   7.731  1.5962 -0.9720 -3.0117
15332SOL     OW47436   3.248   4.928   8.612  0.0442  0.1329 -0.0735
15332SOL    HW147437   3.241   4.833   8.618 -0.3734  0.1046 -0.9479
15332SOL    HW247438   3.266   4.956   8.702  4.3257 -1.0653 -0.3116
15333SOL     OW47439   6.341   4.799  11.081  0.2944  0.4983  0.4248
15333SOL    HW147440   6.316   4.771  10.993 -0.8185  1.0450  0.5465
15333SOL    HW247441   6.367   4.891  11.071  0.1625  0.5637  0.6614
15334SOL     OW47442   3.060   5.116   7.124  0.2244  0.7617  0.7759
15334SOL    HW147443   3.144   5.069   7.120 -0.1900  0.0641 -0.2050
15334SOL    HW247444   3.005   5.061   7.178 -0.5319 -0.3912 -1.0723
15335SOL     OW47445   3.715   3.186   7.853 -0.4557 -0.1644 -0.7136
15335SOL    HW147446   3.789   3.241   7.825  0.8295 -1.5577 -0.2237
15335SOL    HW247447   3.685   3.227   7.934 -1.2186  1.2683 -1.6878
15336SOL     OW47448   4.431   5.367   6.807 -0.9791 -0.1251  0.4656
15336SOL    HW147449   4.506   5.395   6.755 -0.5867  1.1309  1.6687
15336SOL    HW247450   4.393   5.295   6.756  2.0004 -1.9762  0.6314
15337SOL     OW47451   3.436   5.338   8.531 -0.0720 -0.2268 -0.0145
15337SOL    HW147452   3.389   5.305   8.454  0.1441  0.8142 -0.6121
15337SOL    HW247453   3.389   5.299   8.606 -0.7442 -0.6644 -0.6455
15338SOL     OW47454   6.351   4.089   7.840 -0.3422  0.0569 -0.7436
15338SOL    HW147455   6.432   4.092   7.891 -0.5263  0.2246 -0.4592
15338SOL    HW247456   6.303   4.013   7.875  0.1325 -0.6455 -1.5867
15339SOL     OW47457   5.232   4.942   8.758  0.4294 -0.0275  0.1136
15339SOL    HW147458   5.270   4.934   8.671  1.8632  1.0210  0.6063
15339SOL    HW247459   5.294   4.997   8.806 -1.6476  1.6880  0.9988
15340SOL     OW47460   3.841   4.650   9.399 -0.0901 -0.0869 -0.0275
15340SOL    HW147461   3.933   4.675   9.397 -0.7716  2.9830  1.2412
15340SOL    HW247462   3.823   4.617   9.311  2.2532 -1.1059 -0.1888
15341SOL     OW47463   5.762   5.745   7.995 -0.1770  0.0153  0.1748
15341SOL    HW147464   5.777   5.654   7.971  0.1996  0.3265 -0.8306
15341SOL    HW247465   5.725   5.741   8.083  0.9125 -1.0579  0.6137
15342SOL     OW47466   5.403   4.280   7.185 -0.0657  0.3260 -0.2243
15342SOL    HW147467   5.482   4.277   7.239  1.3045  3.1258 -1.8559
15342SOL    HW247468   5.371   4.370   7.193 -3.5147 -0.8334  0.8125
15343SOL     OW47469   3.594   5.494   7.512 -0.2496  0.1124  0.4609
15343SOL    HW147470   3.578   5.580   7.474  1.1269  1.2805  2.3903
15343SOL    HW247471   3.571   5.503   7.604  0.1002 -1.5464  0.7489
15344SOL     OW47472   6.132   7.701   9.581 -0.3276 -0.3121  0.2791
15344SOL    HW147473   6.043   7.726   9.557 -0.1836 -0.1559 -0.1095
15344SOL    HW247474   6.180   7.701   9.498  0.4446  1.2742  0.6867
15345SOL     OW47475   4.509   5.664   6.759  0.6807  0.1818 -0.5070
15345SOL    HW147476   4.531   5.581   6.717 -0.6411 -1.5728  1.9867
15345SOL    HW247477   4.426   5.690   6.719 -0.8218 -1.7257  1.1766
15346SOL     OW47478   4.854   3.953  10.441  0.1017  0.8104  0.4018
15346SOL    HW147479   4.844   4.041  10.477 -0.2375  0.7138  0.5468
15346SOL    HW247480   4.845   3.965  10.347 -0.1572  0.9019  0.4368
15347SOL     OW47481   5.375   3.625  10.277  0.2320  0.2469  0.1378
15347SOL    HW147482   5.372   3.703  10.221 -1.1375 -0.8934 -1.4597
15347SOL    HW247483   5.289   3.621  10.318  0.0180 -0.7928 -0.3679
15348SOL     OW47484   5.698   3.684   9.801  0.0887  0.3078  0.1576
15348SOL    HW147485   5.616   3.660   9.757  0.1465  1.1339 -0.4144
15348SOL    HW247486   5.756   3.610   9.787 -0.0010  0.4265 -0.8898
15349SOL     OW47487   4.402   3.964   7.826  0.5152  0.0696  0.2668
15349SOL    HW147488   4.337   3.955   7.757  0.4660  1.3978  0.1081
15349SOL    HW247489   4.431   4.055   7.820 -0.1022  0.4974  2.5095
15350SOL     OW47490   5.900   4.485   8.916 -0.2471  0.1762  0.2381
15350SOL    HW147491   5.875   4.451   8.830 -0.3774  0.4604  0.1639
15350SOL    HW247492   5.980   4.438   8.938 -0.6435 -0.4742  0.3119
15351SOL     OW47493   4.430   2.933   7.749  0.6332  0.1547  0.3982
15351SOL    HW147494   4.346   2.928   7.795  0.7204  0.3462  0.5779
15351SOL    HW247495   4.420   3.006   7.688  0.5947  0.0401  0.2657
15352SOL     OW47496   4.394   5.138   9.179 -0.1547  0.2624 -0.6858
15352SOL    HW147497   4.486   5.131   9.154 -0.5783  0.2723 -2.3122
15352SOL    HW247498   4.352   5.060   9.142 -1.0482  0.9287 -1.1276
15353SOL     OW47499   5.255   4.815   9.251  0.1989 -0.2071 -0.0793
15353SOL    HW147500   5.314   4.891   9.251 -0.7591  0.5609 -0.1590
15353SOL    HW247501   5.271   4.773   9.166  0.9929 -0.3114  0.1113
15354SOL     OW47502   5.960   5.559   7.787  0.2297  0.9128  0.1035
15354SOL    HW147503   5.928   5.523   7.870  2.1541 -1.1861  0.0298
15354SOL    HW247504   5.891   5.539   7.724  0.6352 -1.4956  0.3603
15355SOL     OW47505   4.879   3.741   8.144 -0.1416 -1.2072  0.6782
15355SOL    HW147506   4.813   3.681   8.109 -0.2850 -1.1109  0.7840
15355SOL    HW247507   4.909   3.790   8.067 -1.6359  0.1688  0.9128
15356SOL     OW47508   5.064   3.927   8.900  0.1194  0.1661 -0.4956
15356SOL    HW147509   5.025   3.839   8.901 -1.4927  0.8475 -0.4518
15356SOL    HW247510   5.023   3.971   8.826 -0.2740  1.3699  0.4088
15357SOL     OW47511   4.879   4.624   7.395 -0.0910  0.0947  0.6140
15357SOL    HW147512   4.958   4.648   7.444  0.4699 -0.2879 -0.0880
15357SOL    HW247513   4.901   4.540   7.355 -0.7312  0.1570  0.1302
15358SOL     OW47514   5.582   4.194   9.039 -0.0554  0.6761  0.1959
15358SOL    HW147515   5.652   4.179   8.975  0.0714 -0.3797  0.5722
15358SOL    HW247516   5.628   4.211   9.121 -0.2017 -1.8463  0.8632
15359SOL     OW47517   6.693   4.932   7.954 -0.2255 -0.3746 -0.1334
15359SOL    HW147518   6.674   5.015   7.909  1.0311  0.6363  1.1159
15359SOL    HW247519   6.628   4.927   8.023  0.3279  0.1132  0.4361
15360SOL     OW47520   4.171   4.963   7.779  0.4788 -0.2413  0.3594
15360SOL    HW147521   4.191   4.888   7.835  0.4664  0.1030  0.8311
15360SOL    HW247522   4.113   4.928   7.712 -0.4375 -0.4292  1.2187
15361SOL     OW47523   6.062   4.987   7.937 -0.5337 -0.1266  0.2240
15361SOL    HW147524   6.032   5.069   7.898  1.0759 -0.3416 -1.6162
15361SOL    HW247525   6.150   5.006   7.969 -0.2967 -1.0258  0.1470
15362SOL     OW47526   6.784   6.717   8.662 -0.0178  0.7884 -0.3298
15362SOL    HW147527   6.724   6.681   8.597 -1.2686  1.7065  0.2988
15362SOL    HW247528   6.783   6.811   8.646 -0.2732  1.0123  0.9656
15363SOL     OW47529   3.932   5.165   9.304  0.4085 -0.0793  0.9353
15363SOL    HW147530   3.861   5.105   9.280 -1.4657  2.2894  0.1189
15363SOL    HW247531   3.997   5.154   9.234 -0.7807  0.1715 -0.2555
15364SOL     OW47532   4.945   5.452   9.770 -0.2322  0.2199  0.1638
15364SOL    HW147533   4.937   5.420   9.860  0.3814 -0.3193  0.0389
15364SOL    HW247534   4.899   5.386   9.718  1.0238 -0.4820 -0.0953
15365SOL     OW47535   5.521   4.585   6.622  0.5122 -0.2241  0.1743
15365SOL    HW147536   5.610   4.581   6.658  0.8051  0.3640 -0.4688
15365SOL    HW247537   5.534   4.589   6.527 -0.2279 -0.9249  0.0287
15366SOL     OW47538   5.473   2.663   9.449 -0.4332  0.5519 -0.8625
15366SOL    HW147539   5.514   2.667   9.535 -0.5719 -1.1656 -0.6959
15366SOL    HW247540   5.496   2.747   9.408  2.4285  0.0716 -0.4209
15367SOL     OW47541   5.009   4.634   9.090  0.3062 -0.5084  0.3312
15367SOL    HW147542   4.949   4.591   9.028  0.0721 -1.7936  1.3894
15367SOL    HW247543   5.095   4.599   9.068  0.5337  0.5815 -0.5520
15368SOL     OW47544   4.697   4.668   9.532 -0.5236  0.3878  0.1097
15368SOL    HW147545   4.749   4.591   9.556 -0.6429  0.1175 -0.4691
15368SOL    HW247546   4.742   4.705   9.457 -2.1734 -0.9709 -1.6512
15369SOL     OW47547   5.143   4.369   8.851  0.6604  0.0357 -0.1465
15369SOL    HW147548   5.052   4.388   8.874  0.5994  0.1816 -0.5026
15369SOL    HW247549   5.137   4.296   8.790  0.8340 -0.4749  0.4382
15370SOL     OW47550   3.367   5.538   9.815  0.0413  0.0993  0.8574
15370SOL    HW147551   3.413   5.482   9.752 -0.1400 -1.5598  2.0981
15370SOL    HW247552   3.292   5.485   9.843 -1.3522  1.8379  0.5626
15371SOL     OW47553   6.231   4.878   6.895 -0.0861 -0.4949 -0.0599
15371SOL    HW147554   6.253   4.925   6.814 -0.0905  1.1016  0.8197
15371SOL    HW247555   6.229   4.946   6.962 -0.8701 -1.6639  1.1524
15372SOL     OW47556   6.609   7.817   6.951  0.8061  0.0163 -0.0087
15372SOL    HW147557   6.537   7.769   6.910  1.3297 -0.3366 -0.5212
15372SOL    HW247558   6.600   7.799   7.045 -0.0244  0.3270 -0.0207
15373SOL     OW47559   5.190   4.216   9.471  0.3995 -0.0489  0.5828
15373SOL    HW147560   5.248   4.146   9.504 -0.3891 -1.4380 -0.8471
15373SOL    HW247561   5.195   4.284   9.538  2.5813 -0.7061  1.1912
15374SOL     OW47562   4.209   4.991   9.458 -0.2193 -0.0463  0.2299
15374SOL    HW147563   4.293   4.965   9.418  0.5541 -0.8013  2.2418
15374SOL    HW247564   4.219   5.085   9.474  0.4896 -0.2303  0.9489
15375SOL     OW47565   4.278   4.924   9.001 -0.0390  0.0405  0.0237
15375SOL    HW147566   4.259   4.953   8.912  0.6399 -0.2165 -0.2133
15375SOL    HW247567   4.253   4.831   9.001  0.4358 -0.0908 -0.0552
15376SOL     OW47568   5.656   3.671   8.766 -0.1533  0.1551 -0.5876
15376SOL    HW147569   5.581   3.720   8.731  0.4875  1.0560 -0.7371
15376SOL    HW247570   5.617   3.609   8.828 -1.2143 -0.7574 -2.0966
15377SOL     OW47571   4.703   4.261   9.599  0.1007  0.1548 -0.3237
15377SOL    HW147572   4.741   4.349   9.608  1.7021 -0.5425  0.0542
15377SOL    HW247573   4.682   4.236   9.689  1.4421 -0.5914 -0.1998
15378SOL     OW47574   5.863   5.903   9.833 -0.3581 -0.2841  0.4861
15378SOL    HW147575   5.771   5.922   9.851 -0.0922 -0.3851  2.1588
15378SOL    HW247576   5.910   5.949   9.903  0.9820  0.9209 -1.1232
15379SOL     OW47577   3.863   3.937   8.029 -0.0152  0.2090  0.6033
15379SOL    HW147578   3.782   3.920   8.077  0.9796 -1.8085  1.7069
15379SOL    HW247579   3.883   4.029   8.047 -2.3238  0.9351 -0.2042
15380SOL     OW47580   5.193   2.959   8.000  0.5387  0.1234  0.4531
15380SOL    HW147581   5.098   2.967   8.007  0.3996 -0.0153 -0.9644
15380SOL    HW247582   5.220   2.914   8.081 -0.7718 -1.0679  0.2608
15381SOL     OW47583   5.895   5.030   8.990  0.3360 -0.5402  0.6885
15381SOL    HW147584   5.910   5.121   9.013  0.9623 -0.2879 -0.6276
15381SOL    HW247585   5.801   5.025   8.971  0.2785 -0.2061  0.8827
15382SOL     OW47586   3.476   5.965   8.759 -0.2891  0.1814 -0.1849
15382SOL    HW147587   3.399   6.017   8.781  0.2464  0.2524  1.6761
15382SOL    HW247588   3.463   5.941   8.667 -1.9944  1.0774 -0.2193
15383SOL     OW47589   4.918   5.071   9.518  0.4224  0.0451 -0.1971
15383SOL    HW147590   4.918   5.115   9.603 -2.7365 -1.2800  0.6654
15383SOL    HW247591   4.826   5.075   9.489  0.7298 -2.4821 -1.9108
15384SOL     OW47592   3.616   4.470  10.542  0.0065 -0.0635 -0.1057
15384SOL    HW147593   3.690   4.426  10.583 -0.7332 -0.0179  1.3129
15384SOL    HW247594   3.547   4.468  10.608 -0.5575  1.8158 -0.5929
15385SOL     OW47595   6.525   4.827   9.259  0.3055  0.1119 -0.3819
15385SOL    HW147596   6.597   4.770   9.285  0.1075 -1.1198 -2.3193
15385SOL    HW247597   6.558   4.916   9.272  2.3275 -0.4136 -1.5060
15386SOL     OW47598   5.469   4.695   7.510  0.0240  0.2376 -0.2006
15386SOL    HW147599   5.550   4.735   7.542 -0.8643  2.1192 -0.1223
15386SOL    HW247600   5.431   4.653   7.587  0.9918 -0.8421 -0.2844
15387SOL     OW47601   3.513   5.712   7.361  0.0716  0.3314 -0.0181
15387SOL    HW147602   3.441   5.722   7.298 -0.0251  1.3134  0.2430
15387SOL    HW247603   3.587   5.756   7.320  0.6098 -0.8417 -0.3733
15388SOL     OW47604   4.117   3.856   8.329  0.5746 -0.4432 -0.1913
15388SOL    HW147605   4.168   3.780   8.355 -0.9445 -1.7381 -0.7912
15388SOL    HW247606   4.141   3.871   8.238 -0.4085 -1.3564 -0.6245
15389SOL     OW47607   4.389   4.794   8.700 -0.1535  0.2231 -0.7655
15389SOL    HW147608   4.320   4.860   8.713 -0.6722 -0.5636  0.7712
15389SOL    HW247609   4.391   4.780   8.605 -2.2173  0.1886 -0.8647
15390SOL     OW47610   3.706   4.923   7.849  0.8679 -0.7953 -0.3995
15390SOL    HW147611   3.731   4.832   7.835 -2.2928 -1.9079  0.2922
15390SOL    HW247612   3.639   4.941   7.783 -0.7613 -0.0449  1.3422
15391SOL     OW47613   3.647   7.696   8.344  0.0266 -0.1507 -0.2709
15391SOL    HW147614   3.652   7.632   8.416  0.7331 -0.1562 -0.3178
15391SOL    HW247615   3.738   7.713   8.321 -0.1975 -0.1528 -1.1755
15392SOL     OW47616   5.651   6.048   8.256  0.3659  0.4017 -0.5916
15392SOL    HW147617   5.605   6.127   8.227 -1.1386 -0.1364  0.2760
15392SOL    HW247618   5.726   6.081   8.305 -0.6606  1.3279  0.4196
15393SOL     OW47619   4.542   4.185   9.402  0.2440 -1.0217 -0.1920
15393SOL    HW147620   4.587   4.222   9.479  0.9422 -0.5889 -0.7980
15393SOL    HW247621   4.559   4.091   9.408  1.4931 -0.8388 -0.5580
15394SOL     OW47622   6.468   4.042   6.988  0.1825 -0.1217  0.3798
15394SOL    HW147623   6.463   4.128   7.030 -0.0710  0.3815 -0.6334
15394SOL    HW247624   6.472   4.062   6.894  2.2359 -1.1569  0.2080
15395SOL     OW47625   5.581   3.584   9.018  0.2031  0.0801  0.9495
15395SOL    HW147626   5.668   3.586   9.057  1.2294 -0.1345 -1.1904
15395SOL    HW247627   5.545   3.498   9.042  0.4328  0.3042  2.1144
15396SOL     OW47628   4.684   5.728   9.886 -0.2023 -0.1728 -0.3684
15396SOL    HW147629   4.775   5.758   9.881 -0.2887  0.2617  0.4010
15396SOL    HW247630   4.667   5.721   9.980 -0.8747 -0.5294 -0.5147
15397SOL     OW47631   3.962   4.355   8.892 -0.6954 -0.1150  0.3514
15397SOL    HW147632   3.869   4.340   8.873 -0.9603  1.7303  0.0876
15397SOL    HW247633   3.975   4.448   8.878  1.5140 -0.5421 -0.9019
15398SOL     OW47634   4.051   5.113   7.986 -0.1748 -0.2186 -0.0899
15398SOL    HW147635   4.104   5.072   7.918  1.0653  0.5409  0.3815
15398SOL    HW247636   4.115   5.144   8.051 -1.1688  1.1270  0.2953
15399SOL     OW47637   5.032   5.299   8.490 -0.0931  0.1568 -0.1866
15399SOL    HW147638   5.009   5.351   8.567  0.2391 -0.2864  0.2186
15399SOL    HW247639   4.972   5.224   8.493 -0.3622  0.3471 -0.5988
15400SOL     OW47640   4.930   5.351   8.249 -0.3364 -0.2571  0.0715
15400SOL    HW147641   4.981   5.315   8.322 -1.6127 -1.6006  0.3688
15400SOL    HW247642   4.884   5.275   8.213 -0.6309  0.5844 -1.4037
15401SOL     OW47643   5.981   5.406   9.671 -0.0225 -0.1942  0.0885
15401SOL    HW147644   6.060   5.358   9.696  0.3965  0.7220  0.5684
15401SOL    HW247645   5.959   5.459   9.748 -1.0032 -0.2902 -0.1028
15402SOL     OW47646   4.777   5.221   6.967 -0.7684  0.1648  0.1361
15402SOL    HW147647   4.833   5.195   6.893 -2.0063  0.5461 -0.9754
15402SOL    HW247648   4.795   5.156   7.035 -0.0231 -0.5429 -0.7193
15403SOL     OW47649   4.663   4.941   9.277 -0.5642  0.0323 -0.4854
15403SOL    HW147650   4.732   4.874   9.272 -0.0220  0.3263  1.9577
15403SOL    HW247651   4.661   4.979   9.189  2.3244 -0.0997 -0.7232
15404SOL     OW47652   5.653   5.214   7.835  0.3091 -0.1016 -0.1759
15404SOL    HW147653   5.608   5.298   7.842  0.5589  0.0662 -0.5670
15404SOL    HW247654   5.625   5.165   7.912 -0.7585 -0.1030 -0.5561
15405SOL     OW47655   4.859   3.926   8.646  0.0330  0.0408  0.3833
15405SOL    HW147656   4.924   3.916   8.576  0.5197 -0.9722  0.9631
15405SOL    HW247657   4.868   3.847   8.699 -0.6978  0.5472  1.2941
15406SOL     OW47658   2.180   5.360   7.465 -0.5477  0.2187 -0.6080
15406SOL    HW147659   2.157   5.379   7.374 -0.5814 -0.1098 -0.6669
15406SOL    HW247660   2.252   5.421   7.484 -2.1007  2.0083 -0.0857
15407SOL     OW47661   5.802   3.890   8.878 -0.0445  0.4899 -0.0891
15407SOL    HW147662   5.738   3.950   8.839 -1.2625  0.6715  2.0313
15407SOL    HW247663   5.763   3.803   8.867 -0.2129  0.5054  0.3662
15408SOL     OW47664   4.945   4.361   7.292 -0.1753  0.1304  0.3392
15408SOL    HW147665   5.016   4.298   7.306 -0.5403 -0.3484  0.0811
15408SOL    HW247666   4.865   4.310   7.309 -0.4533  0.6530  0.5935
15409SOL     OW47667   6.028   5.178   9.325 -0.1176 -0.3019  0.1508
15409SOL    HW147668   5.984   5.258   9.355  2.1552  0.6508  1.2236
15409SOL    HW247669   6.021   5.181   9.230 -0.0733  1.2140  0.1644
15410SOL     OW47670   5.058   4.175   8.639 -0.2604 -0.0747 -0.7337
15410SOL    HW147671   5.079   4.109   8.573  1.3066  0.0674 -0.4111
15410SOL    HW247672   5.003   4.239   8.593 -2.6456 -2.0349 -0.8121
15411SOL     OW47673   5.751   5.744   7.248  0.1862 -0.3931 -0.5751
15411SOL    HW147674   5.806   5.818   7.221  3.4150 -2.1591  0.6348
15411SOL    HW247675   5.768   5.676   7.183 -0.9208 -0.8982 -0.3668
15412SOL     OW47676   4.484   4.559   8.520  0.2014  0.3280 -0.6071
15412SOL    HW147677   4.515   4.648   8.506 -0.9727  0.7895 -0.4338
15412SOL    HW247678   4.529   4.507   8.453  2.1240  0.7370  0.3176
15413SOL     OW47679   7.483   5.160   8.312 -0.5888 -0.4063  1.1639
15413SOL    HW147680   7.392   5.167   8.282 -0.4794 -2.1623  0.2933
15413SOL    HW247681   7.477   5.138   8.404 -1.0674 -0.7894  1.0448
15414SOL     OW47682   4.844   4.848  10.221  0.0527  0.3165  0.6679
15414SOL    HW147683   4.860   4.792  10.298 -0.2153 -1.2731 -0.3807
15414SOL    HW247684   4.925   4.845  10.172 -0.7743 -1.3259 -0.6983
15415SOL     OW47685   4.744   3.988   7.999  0.0585  0.2560  0.9906
15415SOL    HW147686   4.823   3.960   7.954 -0.3457 -1.3800  1.2327
15415SOL    HW247687   4.679   3.922   7.977 -1.2369  1.5205  0.8600
15416SOL     OW47688   4.143   5.568   7.692 -0.6734 -0.2095  0.4052
15416SOL    HW147689   4.105   5.612   7.616 -1.0601 -1.6790 -0.3010
15416SOL    HW247690   4.227   5.535   7.660 -0.7056 -0.5741  0.6896
15417SOL     OW47691   5.685   4.738  10.405  0.1718  0.8526 -0.3886
15417SOL    HW147692   5.688   4.730  10.500 -1.9852  2.4434 -0.1380
15417SOL    HW247693   5.765   4.787  10.383  0.5973  0.6355  0.5911
15418SOL     OW47694   1.125   3.449   8.713  0.5843 -0.2881 -0.6280
15418SOL    HW147695   1.051   3.508   8.697  1.3047  1.5512  2.0331
15418SOL    HW247696   1.182   3.461   8.637 -0.8477 -0.1159 -1.7033
15419SOL     OW47697   3.501   5.637   8.866  0.3045 -0.1019 -0.2429
15419SOL    HW147698   3.550   5.620   8.786  0.0733 -1.2245 -0.1627
15419SOL    HW247699   3.484   5.731   8.865 -0.8514 -0.2972 -2.1582
15420SOL     OW47700   4.222   3.926   7.617  0.3435 -0.0524 -0.0950
15420SOL    HW147701   4.227   3.866   7.543 -0.0376 -0.8113  0.4725
15420SOL    HW247702   4.137   3.906   7.658 -0.5768  2.0426 -0.8604
15421SOL     OW47703   4.894   5.041   8.528 -0.0330 -0.1410  0.0886
15421SOL    HW147704   4.907   5.072   8.617 -1.4009 -0.5786  0.4707
15421SOL    HW247705   4.802   5.014   8.525 -0.1400  0.2845 -1.5834
15422SOL     OW47706   4.102   3.410   7.397  0.0972 -0.2896  0.0114
15422SOL    HW147707   4.029   3.416   7.334 -0.4614  1.3118  0.7541
15422SOL    HW247708   4.124   3.317   7.399 -0.8527 -0.5811 -1.4492
15423SOL     OW47709   6.005   4.941   7.202 -0.5039  0.4944 -0.4309
15423SOL    HW147710   5.976   4.944   7.111  0.9912 -1.2102 -1.0339
15423SOL    HW247711   5.966   4.862   7.237  1.2665 -0.4699 -0.5210
15424SOL     OW47712   4.887   4.465   8.885  0.2243  0.2000  0.3282
15424SOL    HW147713   4.871   4.521   8.810 -0.8070  0.1432  0.5005
15424SOL    HW247714   4.811   4.408   8.890  1.1245 -1.0480  0.3162
15425SOL     OW47715   0.300   5.455   6.762 -0.3819  0.0157 -0.2325
15425SOL    HW147716   0.370   5.480   6.702  0.6691 -2.9927 -0.4275
15425SOL    HW247717   0.346   5.419   6.839 -1.7245  1.0781  1.1168
15426SOL     OW47718   5.555   5.615  10.765 -0.0106 -0.0086 -0.0312
15426SOL    HW147719   5.573   5.597  10.672 -1.9002  2.3551 -0.9407
15426SOL    HW247720   5.529   5.530  10.801 -0.6659 -0.7147 -2.0274
15427SOL     OW47721   3.352   5.896   8.395  0.5168 -0.0663 -0.4625
15427SOL    HW147722   3.446   5.912   8.392  0.0985  2.9933 -0.2793
15427SOL    HW247723   3.345   5.804   8.421  3.4441  0.0610  1.2693
15428SOL     OW47724   3.888   5.868   8.969 -0.2502 -0.3379  0.2473
15428SOL    HW147725   3.843   5.924   8.905  1.0360  0.8181  0.2869
15428SOL    HW247726   3.878   5.779   8.934 -0.9890  0.0882 -0.6804
15429SOL     OW47727   4.747   4.579   8.670  0.8000 -0.4556  0.2944
15429SOL    HW147728   4.654   4.586   8.649  0.8669 -0.1198  0.0984
15429SOL    HW247729   4.790   4.560   8.587  0.9690 -0.0160  0.2780
15430SOL     OW47730   5.180   3.038   9.559 -0.4792  0.4047  0.2066
15430SOL    HW147731   5.149   3.115   9.606  1.9714  3.4215 -2.6090
15430SOL    HW247732   5.131   3.039   9.476  0.7607 -0.0279 -0.5673
15431SOL     OW47733   3.568   4.114   9.721  0.7031  0.5258 -0.5803
15431SOL    HW147734   3.630   4.153   9.659 -0.3403  1.8140 -0.8689
15431SOL    HW247735   3.486   4.160   9.704 -0.1312 -0.5790  0.3395
15432SOL     OW47736   4.675   4.760   7.322  0.4151  0.7638 -0.2055
15432SOL    HW147737   4.757   4.711   7.332 -0.4140 -0.4519  0.9315
15432SOL    HW247738   4.611   4.695   7.293 -0.7112  1.1446  1.3368
15433SOL     OW47739   5.533   5.846   8.412  0.4115  0.2022 -0.1054
15433SOL    HW147740   5.596   5.887   8.352  1.5252  0.3188  1.1058
15433SOL    HW247741   5.578   5.844   8.496 -0.9768 -0.3170  0.6503
15434SOL     OW47742   5.058   4.757   6.988  0.6068 -0.1989  0.6789
15434SOL    HW147743   5.144   4.717   7.000  0.3309 -0.8821  0.4071
15434SOL    HW247744   5.005   4.690   6.946  0.6986  1.1005 -1.6900
15435SOL     OW47745   5.355   3.874   7.594  0.7984  0.2358  0.6335
15435SOL    HW147746   5.272   3.919   7.612  1.0792  0.6069  1.0044
15435SOL    HW247747   5.386   3.845   7.680  1.2400  0.4272  0.5406
15436SOL     OW47748   3.209   4.656   8.615  0.2741 -0.4510  0.7287
15436SOL    HW147749   3.116   4.647   8.637 -0.9808  2.8437 -2.3677
15436SOL    HW247750   3.229   4.577   8.564 -2.7553  1.2728 -3.7097
15437SOL     OW47751   1.954   4.626   6.496 -0.0932  0.1941 -0.6872
15437SOL    HW147752   1.976   4.699   6.555 -1.4674 -0.0247  0.1438
15437SOL    HW247753   2.015   4.556   6.521  0.4438  0.6538 -0.6772
15438SOL     OW47754   4.500   5.430   9.134 -0.2553 -0.2001 -0.1827
15438SOL    HW147755   4.406   5.412   9.131 -0.0668 -1.9895  2.1762
15438SOL    HW247756   4.526   5.409   9.223  2.2022  1.4648 -0.4086
15439SOL     OW47757   5.813   4.254   9.748 -0.2028 -0.7686  0.3317
15439SOL    HW147758   5.756   4.326   9.774 -0.6058 -0.6993 -0.6893
15439SOL    HW247759   5.866   4.290   9.677  1.5410 -0.6572  1.6534
15440SOL     OW47760   5.583   3.730   8.202  0.3989  0.3459 -0.2070
15440SOL    HW147761   5.678   3.718   8.203  0.6041  1.8226 -0.3945
15440SOL    HW247762   5.569   3.820   8.232 -0.9306  0.1849 -0.2736
15441SOL     OW47763   4.582   4.933   8.795 -0.1622  0.6928 -0.0887
15441SOL    HW147764   4.599   4.958   8.704 -2.2703 -0.1351 -0.7911
15441SOL    HW247765   4.510   4.870   8.788 -0.8531  1.1574  2.2130
15442SOL     OW47766   3.361   5.200   8.257  0.5844  0.0656 -0.5526
15442SOL    HW147767   3.398   5.176   8.173 -1.6325 -0.4657 -1.4505
15442SOL    HW247768   3.375   5.122   8.312  0.9036 -0.0623 -0.8102
15443SOL     OW47769   4.754   4.013   8.963  0.1858  0.6547  0.0859
15443SOL    HW147770   4.742   4.071   8.887 -0.7319  1.0225  0.4920
15443SOL    HW247771   4.726   3.927   8.932  1.1184  0.5079 -0.3852
15444SOL     OW47772   5.558   5.016   8.034 -0.8410  0.6931 -0.6121
15444SOL    HW147773   5.486   4.965   7.996 -0.0281  0.8115 -2.4398
15444SOL    HW247774   5.615   4.950   8.073 -0.4881  0.2998 -1.7505
15445SOL     OW47775   4.368   4.931   7.552 -0.2995 -0.9829 -0.4045
15445SOL    HW147776   4.308   4.860   7.575  0.2506 -1.3661 -0.1568
15445SOL    HW247777   4.452   4.889   7.539 -0.0636 -0.4345 -0.6995
15446SOL     OW47778   3.888   5.614   8.877 -0.5003 -0.2726  0.2686
15446SOL    HW147779   3.859   5.526   8.852  0.7378 -0.2389 -1.5176
15446SOL    HW247780   3.934   5.602   8.960 -2.4285 -0.8812  1.3004
15447SOL     OW47781   5.366   4.246   8.521  0.4095  0.4139 -0.0224
15447SOL    HW147782   5.290   4.303   8.531 -0.1782 -0.3283 -0.2136
15447SOL    HW247783   5.377   4.236   8.427 -1.0840 -1.8245 -0.0514
15448SOL     OW47784   4.557   6.125   6.362 -0.3591  0.1743  0.4272
15448SOL    HW147785   4.468   6.091   6.372 -0.3653  0.0254 -0.1289
15448SOL    HW247786   4.552   6.214   6.398 -1.1336  0.7607 -1.0401
15449SOL     OW47787   2.515   4.513  10.389  0.4586 -0.2956  0.2186
15449SOL    HW147788   2.515   4.582  10.323  1.7188 -0.6921 -0.2298
15449SOL    HW247789   2.466   4.549  10.462  1.6052  1.3145  0.2354
15450SOL     OW47790   3.423   3.406  11.802 -0.7099  0.1639  0.1323
15450SOL    HW147791   3.481   3.398  11.727  0.0601 -2.9177  0.8814
15450SOL    HW247792   3.478   3.442  11.871 -0.1253 -1.0503  0.3381
15451SOL     OW47793   1.911   3.156  11.795 -0.0107 -0.3971  0.3579
15451SOL    HW147794   1.825   3.128  11.764  0.1740 -0.6990  0.1112
15451SOL    HW247795   1.966   3.158  11.716 -0.1609  1.2474  0.2566
15452SOL     OW47796   2.859   3.556  11.723  0.2799 -0.6135 -0.0281
15452SOL    HW147797   2.854   3.467  11.688 -0.4972 -0.3179 -0.7102
15452SOL    HW247798   2.774   3.571  11.763  0.7423 -0.5039  0.9340
15453SOL     OW47799   5.261   4.490  10.940 -0.3046 -0.2565  0.6477
15453SOL    HW147800   5.278   4.501  10.847  0.3276  0.9775  0.9030
15453SOL    HW247801   5.260   4.395  10.953  2.6201 -0.4749 -0.0836
15454SOL     OW47802   4.347   6.164   8.727  0.1077 -0.1525 -0.5907
15454SOL    HW147803   4.390   6.094   8.679  2.4988  1.4048 -0.9003
15454SOL    HW247804   4.345   6.134   8.817  0.9331 -0.6999 -0.7431
15455SOL     OW47805   5.286   4.221  10.910  0.1768  1.0439  0.0135
15455SOL    HW147806   5.294   4.214  10.815 -1.3248  1.7597 -0.1876
15455SOL    HW247807   5.197   4.192  10.929  0.6976  0.2000  1.3038
15456SOL     OW47808   3.554   4.647   9.334 -0.3989 -0.3089  0.2609
15456SOL    HW147809   3.543   4.649   9.239 -0.7902 -0.1791  0.3078
15456SOL    HW247810   3.479   4.596   9.366 -0.6349  0.2081  0.5473
15457SOL     OW47811   2.467   2.358  11.470  0.1079  0.1063 -0.6006
15457SOL    HW147812   2.372   2.348  11.466 -0.0169  0.7048  0.5015
15457SOL    HW247813   2.499   2.311  11.393 -0.9063 -2.2847  0.3357
15458SOL     OW47814   4.532   3.953   0.680  0.5013 -0.1849  0.0134
15458SOL    HW147815   4.452   3.975   0.728  1.2739 -0.4008  1.4425
15458SOL    HW247816   4.529   3.858   0.669  0.8536 -0.2771  0.6453
15459SOL     OW47817   2.765   6.226  10.738 -0.1261  0.1281  0.1739
15459SOL    HW147818   2.708   6.149  10.731  0.4431 -0.3480  0.6439
15459SOL    HW247819   2.711   6.293  10.779 -0.5179 -0.1322  0.0841
15460SOL     OW47820   4.025   5.395  10.093 -1.2276 -0.5830  0.3247
15460SOL    HW147821   3.936   5.361  10.089 -1.6996  0.6981 -0.5823
15460SOL    HW247822   4.061   5.381  10.006 -0.4141 -1.3996  0.7789
15461SOL     OW47823   2.896   4.464   9.845  0.1343 -0.4567  0.0982
15461SOL    HW147824   2.887   4.369   9.840  0.1732 -0.4504 -0.1363
15461SOL    HW247825   2.886   4.493   9.754 -0.3332 -0.1975  0.2271
15462SOL     OW47826   3.862   4.413   9.740  0.1330  0.6537  0.3671
15462SOL    HW147827   3.836   4.332   9.695  1.8164  0.4681 -0.3655
15462SOL    HW247828   3.928   4.385   9.804 -0.3126  1.2697  1.1107
15463SOL     OW47829   4.246   4.531   9.812  0.4474  0.2025 -0.3030
15463SOL    HW147830   4.196   4.543   9.893 -0.4941 -2.4537 -0.4000
15463SOL    HW247831   4.180   4.518   9.745  1.1252 -2.8599 -0.5341
15464SOL     OW47832   3.854   4.331  10.646 -0.0269  0.5290  0.5507
15464SOL    HW147833   3.911   4.407  10.653  1.7102 -0.7331  0.7490
15464SOL    HW247834   3.891   4.268  10.707 -0.3028 -1.1460 -0.9294
15465SOL     OW47835   3.845   5.353   8.849  0.2331  0.1467 -0.4867
15465SOL    HW147836   3.836   5.354   8.754 -1.4287 -1.9461 -0.3982
15465SOL    HW247837   3.913   5.288   8.866 -1.4372 -1.5861 -0.1789
15466SOL     OW47838   3.114   6.490   9.794 -0.5974 -0.0415 -0.0174
15466SOL    HW147839   3.173   6.558   9.826  0.4371 -0.4675 -0.9586
15466SOL    HW247840   3.170   6.413   9.786 -1.8560 -1.1777  1.5143
15467SOL     OW47841   3.521   3.751  11.724 -0.2618  0.0468  0.2899
15467SOL    HW147842   3.585   3.783  11.661 -1.1467 -0.1496 -0.7323
15467SOL    HW247843   3.512   3.658  11.704 -1.3947  0.2156 -0.0654
15468SOL     OW47844   3.674   5.334   9.081  0.4269 -0.2439 -0.3652
15468SOL    HW147845   3.719   5.361   9.001 -1.0628 -0.8251 -1.4406
15468SOL    HW247846   3.589   5.378   9.076  0.6377  0.4614  1.3888
15469SOL     OW47847   3.962   2.180  11.684 -0.5173  0.5826 -0.5145
15469SOL    HW147848   3.930   2.117  11.619  2.1864 -2.4819  0.8316
15469SOL    HW247849   4.032   2.227  11.638 -0.4475  0.3767 -0.6234
15470SOL     OW47850   5.579   4.840  10.649 -0.5246  0.1592  0.1309
15470SOL    HW147851   5.526   4.827  10.728 -0.7405  0.2995  0.0091
15470SOL    HW247852   5.517   4.832  10.577 -0.1830 -0.7831 -0.0657
15471SOL     OW47853   4.770   5.140  10.718  0.3711 -0.0771 -0.2548
15471SOL    HW147854   4.858   5.132  10.681  0.0243 -0.7260 -0.9756
15471SOL    HW247855   4.717   5.077  10.668 -0.4207  0.0374  0.4156
15472SOL     OW47856   3.947   4.668   8.893 -0.4259 -0.1255  0.2338
15472SOL    HW147857   3.880   4.719   8.940 -0.4554  0.6949 -0.6541
15472SOL    HW247858   4.016   4.732   8.875  0.7463 -1.0304  1.3822
15473SOL     OW47859   5.443   5.164   8.510 -0.1816  0.2796 -0.1894
15473SOL    HW147860   5.422   5.071   8.521  3.4263 -0.6285  0.0008
15473SOL    HW247861   5.460   5.173   8.416 -0.1840  0.6923 -0.1518
15474SOL     OW47862   6.545   3.350  11.023  0.1554  0.0935 -0.2617
15474SOL    HW147863   6.592   3.423  11.063 -0.2761  0.9065 -1.1946
15474SOL    HW247864   6.502   3.305  11.096 -0.6124  1.5226  0.2008
15475SOL     OW47865   2.766   2.606  12.287  0.0740  0.0472  0.5564
15475SOL    HW147866   2.748   2.684  12.233 -0.2320 -0.7186 -0.4857
15475SOL    HW247867   2.703   2.611  12.358 -1.2589 -0.2208 -0.5611
15476SOL     OW47868   5.335   4.825   9.935  0.2416  0.4805  0.2223
15476SOL    HW147869   5.318   4.872   9.853  0.3406 -1.2021 -0.8271
15476SOL    HW247870   5.429   4.832   9.948 -0.0492  2.7493  1.5200
15477SOL     OW47871   4.574   3.614  11.404 -0.3274 -0.0014 -0.5728
15477SOL    HW147872   4.631   3.630  11.478  0.2974 -0.3991 -0.9553
15477SOL    HW247873   4.536   3.527  11.421 -1.3386  0.5303 -0.0013
15478SOL     OW47874   3.540   3.189  10.729 -0.0407 -0.4692 -0.2195
15478SOL    HW147875   3.545   3.247  10.806 -1.0798 -1.7616  0.8781
15478SOL    HW247876   3.542   3.248  10.654 -0.3111  0.9268  0.8364
15479SOL     OW47877   5.958   4.471  10.526 -0.0630  0.6144  0.0020
15479SOL    HW147878   5.885   4.415  10.552 -1.3165  1.5112 -1.3897
15479SOL    HW247879   5.937   4.556  10.565  0.4687  0.7741 -0.0594
15480SOL     OW47880   5.070   2.578   8.467  0.1394  0.2484 -0.2081
15480SOL    HW147881   5.137   2.640   8.497 -0.2920  0.3913  0.4735
15480SOL    HW247882   4.990   2.630   8.464 -0.2421 -0.2958  0.4361
15481SOL     OW47883   4.399   4.685  10.747  0.2095 -0.2723  0.6739
15481SOL    HW147884   4.374   4.679  10.654 -0.9133  0.1213  0.9361
15481SOL    HW247885   4.483   4.640  10.752  1.7135  2.0489 -1.0690
15482SOL     OW47886   2.906   4.005  10.936 -0.4356  0.6372 -0.3356
15482SOL    HW147887   2.950   3.949  11.000  0.1701  0.0753 -1.2004
15482SOL    HW247888   2.815   4.010  10.965 -0.3393 -0.2393  0.1479
15483SOL     OW47889   4.771   3.703  10.514  0.1571  0.2728  1.0254
15483SOL    HW147890   4.825   3.773  10.477 -0.7656  0.3156 -0.2870
15483SOL    HW247891   4.759   3.728  10.606 -1.1837  2.5008  0.2981
15484SOL     OW47892   5.062   5.693  11.250  0.3529 -0.7806 -0.0173
15484SOL    HW147893   5.022   5.610  11.225  0.4558 -0.7623 -0.2470
15484SOL    HW247894   5.001   5.732  11.312  0.3106 -1.0334  0.1026
15485SOL     OW47895   4.489   3.893   9.786  0.5640  0.3217 -0.2621
15485SOL    HW147896   4.406   3.912   9.831  0.3656 -0.0462 -0.4655
15485SOL    HW247897   4.466   3.894   9.693  1.0384  1.4107 -0.3857
15486SOL     OW47898   5.874   4.894  10.303  0.1898 -0.6162 -0.0982
15486SOL    HW147899   5.952   4.921  10.350  0.5222  0.4525 -1.2037
15486SOL    HW247900   5.872   4.950  10.225 -1.2243 -1.1909 -0.5162
15487SOL     OW47901   5.524   5.660   8.194  0.0774  0.0199 -0.0644
15487SOL    HW147902   5.522   5.699   8.281  0.9115 -0.2765  0.1007
15487SOL    HW247903   5.600   5.602   8.196 -0.0262 -0.1577 -0.9191
15488SOL     OW47904   3.731   2.684   9.645  0.8073 -0.1250 -0.2950
15488SOL    HW147905   3.811   2.734   9.664  0.4446  0.3244  0.1043
15488SOL    HW247906   3.660   2.749   9.651  0.3466 -0.6403  0.0166
15489SOL     OW47907   6.162   3.289  11.633  0.4315  0.3795  0.3351
15489SOL    HW147908   6.212   3.268  11.555  0.2280 -0.8119  0.5072
15489SOL    HW247909   6.224   3.335  11.690  1.0486 -0.2201  0.1556
15490SOL     OW47910   1.644   3.577  10.745 -0.4464  0.0810 -0.1117
15490SOL    HW147911   1.674   3.664  10.770 -0.7268  0.2726 -0.4273
15490SOL    HW247912   1.624   3.533  10.828  1.1658 -0.2377  0.1516
15491SOL     OW47913   5.256   5.713  12.232  0.0259 -0.0553  0.1187
15491SOL    HW147914   5.223   5.663  12.157 -0.8779 -0.9802  1.0997
15491SOL    HW247915   5.178   5.736  12.282  0.5620  1.0967  0.4582
15492SOL     OW47916   5.401   3.982   9.530 -0.0473 -0.0833 -0.1478
15492SOL    HW147917   5.411   3.996   9.436  0.1793 -1.0302 -0.2705
15492SOL    HW247918   5.489   3.966   9.562 -0.2517 -0.9496  0.0153
15493SOL     OW47919   4.996   4.431   9.329  0.1687  0.0118  0.4313
15493SOL    HW147920   5.014   4.515   9.372 -0.7807  0.5828 -0.2259
15493SOL    HW247921   4.962   4.456   9.243  1.9539 -1.0933 -0.6448
15494SOL     OW47922   3.019   6.233  11.434  0.2558 -0.2230 -0.4095
15494SOL    HW147923   2.934   6.277  11.432  0.4376  0.2295  1.0240
15494SOL    HW247924   3.013   6.171  11.507  0.5079 -1.5943 -1.4926
15495SOL     OW47925   4.816   4.432  10.294  0.0491  0.4819  0.1155
15495SOL    HW147926   4.758   4.355  10.292 -0.7936  1.1123 -0.5544
15495SOL    HW247927   4.841   4.441  10.385 -1.4296  0.5648  0.5370
15496SOL     OW47928   3.878   7.297   8.529 -0.4308  0.1508 -0.3673
15496SOL    HW147929   3.852   7.272   8.440  0.7595 -0.9085 -0.4379
15496SOL    HW247930   3.900   7.215   8.572 -2.5268  0.4626  1.4645
15497SOL     OW47931   3.942   3.965   9.765  0.0997 -0.2145  0.9573
15497SOL    HW147932   3.866   3.979   9.822 -1.0749  0.4887 -0.7309
15497SOL    HW247933   3.907   3.925   9.686  1.3104  1.0593 -0.2881
15498SOL     OW47934   2.325   5.340  10.200  0.2792 -0.0320 -0.1325
15498SOL    HW147935   2.415   5.364  10.222 -0.2140  0.2281  1.8068
15498SOL    HW247936   2.333   5.283  10.124  1.9143  1.6043 -1.2789
15499SOL     OW47937   4.273   4.381  11.331 -0.5586 -0.0702  0.0244
15499SOL    HW147938   4.302   4.471  11.319 -0.3517 -0.1043  0.2651
15499SOL    HW247939   4.348   4.337  11.371 -0.6528 -0.3528 -0.1066
15500SOL     OW47940   4.448   5.909  11.481  0.0486 -0.3572 -0.4628
15500SOL    HW147941   4.473   5.854  11.555  0.3255  1.8975  1.2515
15500SOL    HW247942   4.358   5.935  11.500  0.2634  0.5831 -0.6749
15501SOL     OW47943   4.328   4.222   8.770  0.1938  0.5061 -0.3923
15501SOL    HW147944   4.245   4.174   8.778  0.0996  0.7230 -0.0548
15501SOL    HW247945   4.389   4.158   8.733  0.5391 -0.4172  1.6506
15502SOL     OW47946   4.900   4.101   9.489  0.6849  0.2999 -0.6882
15502SOL    HW147947   4.825   4.155   9.516  0.9271 -0.5029  1.7715
15502SOL    HW247948   4.894   4.023   9.543  1.7551 -1.0763 -2.4494
15503SOL     OW47949   4.311   6.405  10.704  0.4400 -0.0580  0.3307
15503SOL    HW147950   4.322   6.320  10.747 -2.9726 -0.6476  0.2781
15503SOL    HW247951   4.347   6.392  10.616  0.5979 -1.2271  0.5517
15504SOL     OW47952   6.181   4.391  10.397  0.6507  0.0198 -0.4381
15504SOL    HW147953   6.156   4.408  10.306  1.2360  2.6974 -0.1876
15504SOL    HW247954   6.102   4.410  10.447  0.5176 -0.8210 -0.3165
15505SOL     OW47955   2.742   4.383  10.710  0.0827 -0.4949 -0.3064
15505SOL    HW147956   2.826   4.338  10.721  0.1771 -0.1232  0.5915
15505SOL    HW247957   2.764   4.465  10.667  0.4163  0.2721  1.2298
15506SOL     OW47958   4.628   5.283   9.376  0.2910 -0.0380 -0.0474
15506SOL    HW147959   4.578   5.214   9.334 -0.6385  0.5015  0.1484
15506SOL    HW247960   4.697   5.305   9.312 -1.2729  0.9866 -1.4724
15507SOL     OW47961   4.111   4.089   8.827  0.2668  0.3581 -0.2685
15507SOL    HW147962   4.021   4.110   8.804  0.1995  0.9813  0.5533
15507SOL    HW247963   4.106   4.049   8.914  0.5717 -1.5504 -1.0674
15508SOL     OW47964   5.533   3.105  10.224  0.0302  0.0052  0.2566
15508SOL    HW147965   5.456   3.131  10.172  0.4674  0.3446 -0.2258
15508SOL    HW247966   5.596   3.175  10.210  1.4642 -1.5484 -1.5495
15509SOL     OW47967   4.506   6.143  12.087  0.2706 -0.3421 -0.0932
15509SOL    HW147968   4.521   6.053  12.057 -0.6963 -0.5564  0.0226
15509SOL    HW247969   4.419   6.140  12.127 -0.4079  0.9758 -1.3982
15510SOL     OW47970   5.421   5.161  11.218 -0.1593  0.4345  0.7115
15510SOL    HW147971   5.514   5.174  11.233 -0.1633  0.7790  0.4612
15510SOL    HW247972   5.393   5.241  11.173 -0.4352  0.0478  0.1762
15511SOL     OW47973   4.697   4.197   9.875  0.0889 -0.1674  0.1985
15511SOL    HW147974   4.663   4.112   9.903  1.1303 -0.7690 -0.3509
15511SOL    HW247975   4.656   4.259   9.935 -2.4490 -0.7743 -0.7798
15512SOL     OW47976   5.262   4.174  10.211 -0.3787 -0.2706  0.1993
15512SOL    HW147977   5.267   4.265  10.240  0.6498 -0.0710 -0.5618
15512SOL    HW247978   5.234   4.179  10.120  0.1781 -0.6864  0.0017
15513SOL     OW47979   4.917   2.458  10.269  0.6419  0.3711 -0.5906
15513SOL    HW147980   4.836   2.407  10.279 -1.0792  2.9777 -0.3675
15513SOL    HW247981   4.979   2.396  10.230 -1.6879 -1.5267 -1.5371
15514SOL     OW47982   4.351   3.647  10.566 -0.6062 -0.1314 -0.2092
15514SOL    HW147983   4.341   3.660  10.661  1.2178 -0.4246  0.0587
15514SOL    HW247984   4.261   3.641  10.533 -1.2774 -0.5813  1.5796
15515SOL     OW47985   4.248   3.504  10.157 -0.4413  0.2868 -0.3546
15515SOL    HW147986   4.221   3.451  10.232 -1.3015  2.1665  0.7530
15515SOL    HW247987   4.334   3.470  10.133 -0.6317 -1.0844  0.7596
15516SOL     OW47988   4.326   2.508  10.966 -0.2884  0.2756  0.8231
15516SOL    HW147989   4.311   2.536  11.056  1.5525 -0.4716  1.4001
15516SOL    HW247990   4.362   2.419  10.973 -0.4422  0.0559 -0.6652
15517SOL     OW47991   5.787   4.276  10.627  0.2796 -0.2411  0.5727
15517SOL    HW147992   5.710   4.252  10.574 -0.6106  0.7165  1.3787
15517SOL    HW247993   5.751   4.292  10.714  1.3965  0.3402  0.9363
15518SOL     OW47994   3.736   2.906   9.391 -0.6220 -0.3728  0.2132
15518SOL    HW147995   3.825   2.929   9.366 -0.7109 -1.7591 -1.5759
15518SOL    HW247996   3.730   2.811   9.377 -2.6428 -0.1746 -0.6904
15519SOL     OW47997   4.047   4.049   9.309 -0.4203  0.4357  0.2420
15519SOL    HW147998   4.032   3.967   9.261  0.5779 -0.0305  0.6807
15519SOL    HW247999   4.062   4.114   9.241  1.2406 -0.2712 -0.1346
15520SOL     OW48000   3.602   2.915  10.934  0.6721  0.0628  0.3215
15520SOL    HW148001   3.654   2.992  10.955 -0.3572  0.9326 -0.2043
15520SOL    HW248002   3.610   2.904  10.840 -0.9630  0.9085  0.0419
15521SOL     OW48003   3.292   3.686  12.003 -0.7557  0.6947 -0.0468
15521SOL    HW148004   3.356   3.633  12.050 -1.1665  1.5249  1.5080
15521SOL    HW248005   3.340   3.766  11.979 -0.9414  0.8910  0.2368
15522SOL     OW48006   5.745   6.851  11.425  0.3745  0.0343  0.0989
15522SOL    HW148007   5.661   6.840  11.380  0.5239  2.0173 -0.8050
15522SOL    HW248008   5.732   6.928  11.480  1.2608 -0.3348  0.8334
15523SOL     OW48009   4.444   3.571   9.805  0.4433 -0.3525 -0.0853
15523SOL    HW148010   4.463   3.665   9.810 -0.1869 -0.2325  0.1371
15523SOL    HW248011   4.350   3.565   9.825  0.8553 -1.2065  1.8063
15524SOL     OW48012   6.360   6.130  10.105  0.2962 -0.2610 -0.1420
15524SOL    HW148013   6.270   6.124  10.073  0.6389  0.8462 -1.3803
15524SOL    HW248014   6.370   6.221  10.133  0.5843 -0.7444  1.4157
15525SOL     OW48015   5.030   4.546  10.127 -0.4613  0.4483  0.1441
15525SOL    HW148016   4.944   4.542  10.169 -0.5612  1.0975  0.0253
15525SOL    HW248017   5.085   4.595  10.188 -0.1476 -0.0409  0.2604
15526SOL     OW48018   3.855   5.648  11.686 -0.2535  0.2736 -0.0337
15526SOL    HW148019   3.947   5.671  11.696 -0.4891  1.1185  0.2694
15526SOL    HW248020   3.807   5.727  11.711 -1.0713 -0.2648  0.1630
15527SOL     OW48021   3.849   3.954   9.496 -0.4308  0.1160  0.2564
15527SOL    HW148022   3.796   3.895   9.441 -2.8363  1.3983  1.0550
15527SOL    HW248023   3.923   3.978   9.440  0.1007 -2.7572 -0.4722
15528SOL     OW48024   5.112   4.647   9.462  0.6236 -0.1326 -0.7390
15528SOL    HW148025   5.075   4.696   9.535 -0.3204 -1.9973  0.0878
15528SOL    HW248026   5.151   4.714   9.405  0.4967  1.4377  0.9492
15529SOL     OW48027   4.849   3.009  10.600 -0.5896 -0.4113  0.9289
15529SOL    HW148028   4.877   3.092  10.561 -0.4618 -0.5905  0.6358
15529SOL    HW248029   4.931   2.960  10.613 -0.7030 -0.6508  0.7331
15530SOL     OW48030   4.998   7.810   9.529  0.1334 -0.3964 -0.5389
15530SOL    HW148031   5.091   7.828   9.518  0.2898 -0.8835 -0.0586
15530SOL    HW248032   4.988   7.718   9.503 -0.0220 -0.6630  0.4322
15531SOL     OW48033   4.637   4.485  10.004  0.5480  0.1444  0.1917
15531SOL    HW148034   4.709   4.473   9.942  1.2083  1.5691  0.6488
15531SOL    HW248035   4.674   4.461  10.089  0.2311  0.0971  0.3189
15532SOL     OW48036   5.035   4.733  10.718  0.2147  0.0459  1.0430
15532SOL    HW148037   5.005   4.649  10.682  2.3642 -0.2833 -0.1299
15532SOL    HW248038   4.970   4.797  10.687  0.3062 -0.7172 -0.8310
15533SOL     OW48039   4.239   4.129   9.516  0.1096 -0.4489 -0.3927
15533SOL    HW148040   4.297   4.059   9.545 -1.4265 -1.0998  1.2727
15533SOL    HW248041   4.164   4.084   9.479 -0.9020  0.2864  0.6978
15534SOL     OW48042   5.232   4.220  11.500 -0.2267  0.1115  0.1327
15534SOL    HW148043   5.235   4.291  11.435 -1.0549  0.1234  0.0977
15534SOL    HW248044   5.253   4.141  11.451 -0.4394  0.1790 -0.0688
15535SOL     OW48045   4.726   4.184   8.643 -0.0278 -0.1541 -0.2125
15535SOL    HW148046   4.783   4.107   8.652 -0.5469 -0.6332 -0.8532
15535SOL    HW248047   4.684   4.172   8.558  0.8454  1.5025 -0.9232
15536SOL     OW48048   2.152   4.329   9.304  0.2998  0.3434  0.4801
15536SOL    HW148049   2.143   4.234   9.299  0.8693  0.2753  0.6624
15536SOL    HW248050   2.181   4.347   9.393  0.9231  0.6168  0.2342
15537SOL     OW48051   3.247   3.544  10.726 -0.0506  0.6528 -0.6417
15537SOL    HW148052   3.171   3.536  10.784  0.4082 -0.0932 -0.1144
15537SOL    HW248053   3.222   3.610  10.662 -1.6168 -0.4280 -1.2063
15538SOL     OW48054   3.885   4.904   9.201  0.4467  0.6639 -0.2790
15538SOL    HW148055   3.847   4.858   9.126  1.2240  0.2051 -0.4052
15538SOL    HW248056   3.953   4.845   9.233  0.2680  0.9446  0.6683
15539SOL     OW48057   4.775   5.268  12.020 -0.2936 -0.7362 -0.5889
15539SOL    HW148058   4.839   5.196  12.026 -2.0432 -2.6410 -2.6438
15539SOL    HW248059   4.712   5.250  12.089 -0.8260 -1.3429 -1.2119
15540SOL     OW48060   4.598   4.924  10.172  0.0703  0.1712 -0.0172
15540SOL    HW148061   4.685   4.885  10.166 -0.5090 -0.9689 -1.5836
15540SOL    HW248062   4.610   5.014  10.142  0.3727 -0.5697 -2.2745
15541SOL     OW48063   3.767   3.917  10.495  0.1909 -1.0660  0.5670
15541SOL    HW148064   3.789   3.922  10.588  1.3281 -0.4008  0.2864
15541SOL    HW248065   3.704   3.987  10.480  2.3025  0.9093  0.2775
15542SOL     OW48066   4.753   2.696  10.185  0.6732  0.3947 -0.2849
15542SOL    HW148067   4.826   2.638  10.207  0.2968  0.1785  0.4262
15542SOL    HW248068   4.716   2.658  10.105 -0.7083 -1.4691  1.1538
15543SOL     OW48069   5.178   4.005  10.389 -0.3360 -0.2471 -0.6611
15543SOL    HW148070   5.120   3.945  10.343 -1.3281  1.3780 -1.6181
15543SOL    HW248071   5.218   4.058  10.321 -0.8237  1.3311  0.2278
15544SOL     OW48072   4.287   3.814   8.828  0.2693 -0.4273 -0.2130
15544SOL    HW148073   4.197   3.843   8.814  0.4092  1.9437  2.7506
15544SOL    HW248074   4.278   3.726   8.866 -0.8204 -0.1296  0.2466
15545SOL     OW48075   3.959   5.034  10.137 -0.1690  0.0709  0.8210
15545SOL    HW148076   4.051   5.029  10.164  1.0095 -1.9836 -2.9028
15545SOL    HW248077   3.914   4.971  10.194  0.4571  1.5824  3.1494
15546SOL     OW48078   3.748   2.354  10.015  0.1009 -0.5619 -0.7704
15546SOL    HW148079   3.833   2.396  10.004 -0.0217  0.8601  2.6194
15546SOL    HW248080   3.684   2.422   9.995 -0.3501 -1.5657 -3.0971
15547SOL     OW48081   4.587   6.516  11.561  0.0964  0.0733 -0.0494
15547SOL    HW148082   4.664   6.485  11.609 -0.5877  0.2552  1.2078
15547SOL    HW248083   4.578   6.607  11.588 -0.9018 -0.1175  0.2923
15548SOL     OW48084   2.394   5.776   8.355  0.1298 -0.0359 -0.0180
15548SOL    HW148085   2.472   5.815   8.316  0.8416  1.0801  2.3058
15548SOL    HW248086   2.418   5.684   8.370  0.4563 -0.0502 -0.6136
15549SOL     OW48087   3.877   2.890  11.072 -0.2446  0.0730 -0.1028
15549SOL    HW148088   3.962   2.923  11.046 -0.3020  0.8350  0.6383
15549SOL    HW248089   3.815   2.957  11.042 -0.3339  0.8562  1.6742
15550SOL     OW48090   4.909   6.943   8.093  0.0637 -0.2675 -0.3659
15550SOL    HW148091   4.968   6.874   8.124 -1.0911 -1.2362 -0.2443
15550SOL    HW248092   4.890   6.995   8.171  0.7977  0.0905 -0.4198
15551SOL     OW48093   4.392   5.408  10.666  0.2719  0.1061 -0.2462
15551SOL    HW148094   4.451   5.482  10.686  0.1411  0.4202 -0.9820
15551SOL    HW248095   4.417   5.340  10.729  1.1525  0.3806 -0.2809
15552SOL     OW48096   5.335   3.961   8.915 -0.3750  0.6910  0.0288
15552SOL    HW148097   5.357   4.032   8.855  0.9619 -1.1383 -1.7927
15552SOL    HW248098   5.240   3.955   8.912 -0.4313  1.7019 -0.6003
15553SOL     OW48099   4.321   5.188   9.919  0.7597 -0.3897 -0.1032
15553SOL    HW148100   4.306   5.094   9.922 -1.3827 -0.0924  0.2602
15553SOL    HW248101   4.358   5.204   9.833  0.4691 -1.4896 -0.4474
15554SOL     OW48102   4.469   4.671  10.128 -0.0509  0.0214 -0.2224
15554SOL    HW148103   4.522   4.631  10.060 -0.2070 -0.6574  0.0429
15554SOL    HW248104   4.493   4.764  10.127 -0.0350  0.0152 -1.1733
15555SOL     OW48105   5.619   3.960  10.931  0.7322  0.0936 -0.4724
15555SOL    HW148106   5.584   4.036  10.977 -3.7501 -1.3290 -1.0436
15555SOL    HW248107   5.645   3.900  11.000  0.2623  0.5230  0.0910
15556SOL     OW48108   4.186   3.590   9.900 -0.1393  0.1563 -0.2484
15556SOL    HW148109   4.194   3.561   9.990  0.1751  2.0910  0.3920
15556SOL    HW248110   4.093   3.610   9.889 -0.3317 -0.8701 -0.6494
15557SOL     OW48111   3.708   2.774   0.010 -0.0003 -0.8283 -0.2927
15557SOL    HW148112   3.716   2.704  -0.054 -0.6414  0.6877 -2.1448
15557SOL    HW248113   3.617   2.804   0.001  0.5623  0.9669 -0.4018
15558SOL     OW48114   4.341   4.658   9.168  0.0485 -0.0510  0.2570
15558SOL    HW148115   4.299   4.658   9.082 -0.2982 -0.5804  0.4192
15558SOL    HW248116   4.391   4.576   9.171 -0.5886 -0.4324  0.8615
15559SOL     OW48117   6.636   3.213   8.672  0.5646  0.2630 -0.1502
15559SOL    HW148118   6.707   3.179   8.617  0.8315  0.8166 -0.1492
15559SOL    HW248119   6.652   3.173   8.758  1.8096  1.5969  0.2792
15560SOL     OW48120   4.854   4.237   9.107 -0.0582  0.0891  0.3372
15560SOL    HW148121   4.825   4.155   9.068  1.7737 -0.0654 -0.8176
15560SOL    HW248122   4.839   4.303   9.039  0.6233  0.3032  0.3914
15561SOL     OW48123   2.664   3.256  11.035 -0.5180 -0.0451  0.1979
15561SOL    HW148124   2.678   3.169  10.997  0.6971  0.6042 -0.9434
15561SOL    HW248125   2.571   3.273  11.021 -0.6148 -0.8492 -0.2575
15562SOL     OW48126   4.262   4.648  10.506  0.6831 -0.2637  0.1724
15562SOL    HW148127   4.214   4.576  10.464  1.0252 -0.4588  0.1167
15562SOL    HW248128   4.347   4.649  10.463  0.3773  0.7391 -0.4346
15563SOL     OW48129   4.215   4.760  10.140  0.0376 -0.1607  0.2943
15563SOL    HW148130   4.143   4.701  10.162 -0.1927 -0.2765 -0.6891
15563SOL    HW248131   4.293   4.704  10.144 -0.0129 -0.2080  0.6593
15564SOL     OW48132   5.683   4.579  11.363 -0.2566  0.0529  0.1280
15564SOL    HW148133   5.615   4.541  11.419 -3.0136 -0.1697 -3.0884
15564SOL    HW248134   5.670   4.674  11.372 -0.6501  0.0207 -0.0768
15565SOL     OW48135   2.344   2.325  10.769  0.1792  0.1864  0.1521
15565SOL    HW148136   2.415   2.272  10.733  0.8814  1.5642 -0.5737
15565SOL    HW248137   2.301   2.362  10.692 -1.3674 -0.6360  0.5829
15566SOL     OW48138   5.699   3.897   9.965 -0.2450 -0.4659  0.4292
15566SOL    HW148139   5.670   3.820   9.916 -0.6531 -0.5076  0.7390
15566SOL    HW248140   5.793   3.902   9.947 -0.4785 -0.1739 -0.7906
15567SOL     OW48141   5.109   5.417  11.520 -0.8276  0.4158  0.1938
15567SOL    HW148142   5.072   5.400  11.606 -0.9100  0.1801  0.1131
15567SOL    HW248143   5.134   5.510  11.522  0.8877 -0.0347  1.1139
15568SOL     OW48144   5.559   4.822   9.463 -0.8363 -0.6091 -0.0595
15568SOL    HW148145   5.473   4.782   9.449 -2.0767  1.1542  2.0144
15568SOL    HW248146   5.570   4.882   9.389 -1.9213 -0.0398  0.2220
15569SOL     OW48147   6.326   6.509  10.660 -0.1380 -0.0913 -0.3402
15569SOL    HW148148   6.260   6.577  10.645  0.4490 -0.1316 -4.1665
15569SOL    HW248149   6.409   6.551  10.637  0.6344 -1.2596  0.2128
15570SOL     OW48150   4.707   6.351  10.047  0.1157  0.1247  0.2061
15570SOL    HW148151   4.612   6.365  10.049  0.2251  0.9752 -0.1770
15570SOL    HW248152   4.743   6.416  10.107  0.5454  0.7728 -0.7198
15571SOL     OW48153   6.245   3.987   8.897  0.3667  0.0907 -0.4667
15571SOL    HW148154   6.178   3.922   8.873 -0.7252  1.2004 -0.5546
15571SOL    HW248155   6.213   4.026   8.978  1.6235 -0.2993  0.2422
15572SOL     OW48156   4.671   4.299   8.890  0.9947 -0.3143  0.0850
15572SOL    HW148157   4.686   4.272   8.799  3.1021  0.4758  0.1519
15572SOL    HW248158   4.591   4.352   8.886  0.3300 -1.3631 -1.0663
15573SOL     OW48159   4.093   5.139   9.049 -0.2052  0.5026 -0.1304
15573SOL    HW148160   4.078   5.142   8.955  1.5278  1.6511 -0.4126
15573SOL    HW248161   4.128   5.052   9.066  2.1618  1.1917 -1.0578
15574SOL     OW48162   2.622   4.364  10.124  0.2547  0.6739  0.1635
15574SOL    HW148163   2.637   4.442  10.071 -0.9124  0.3660 -0.6764
15574SOL    HW248164   2.530   4.343  10.109 -0.2347  0.7659  2.5966
15575SOL     OW48165   1.528   4.257   7.943 -0.3060  0.1052 -0.7133
15575SOL    HW148166   1.548   4.163   7.934 -0.0445  0.1110 -0.2733
15575SOL    HW248167   1.613   4.297   7.961 -0.6016  0.2198  0.5630
15576SOL     OW48168   5.587   6.577  11.392  0.3036 -0.3546  0.2649
15576SOL    HW148169   5.660   6.569  11.453 -1.5487 -1.5571  2.4676
15576SOL    HW248170   5.538   6.496  11.402 -2.3045  1.0976  0.2099
15577SOL     OW48171   1.639   6.064   8.607 -0.0590 -0.4063 -0.4385
15577SOL    HW148172   1.563   6.022   8.566 -0.4084 -0.4015  0.1980
15577SOL    HW248173   1.698   5.991   8.629  0.4332 -0.3637 -1.5242
15578SOL     OW48174   3.562   6.822   8.770 -0.2280 -0.6578  0.1255
15578SOL    HW148175   3.542   6.893   8.830 -0.0569 -0.0263 -0.5477
15578SOL    HW248176   3.476   6.785   8.747 -0.4332  0.1621 -0.4995
15579SOL     OW48177   4.207   3.886   9.826  0.1205  0.2561  0.1983
15579SOL    HW148178   4.190   3.803   9.870  0.8502  0.3826  0.7381
15579SOL    HW248179   4.121   3.915   9.795 -0.2814 -0.2255  0.8472
15580SOL     OW48180   4.864   4.069  11.405  0.6607  0.1573  0.3127
15580SOL    HW148181   4.938   4.008  11.407  0.3010 -0.2962  2.5709
15580SOL    HW248182   4.813   4.047  11.482 -1.6470  0.7421 -0.9435
15581SOL     OW48183   3.285   4.171  11.204 -0.3810 -0.7186  0.5644
15581SOL    HW148184   3.235   4.185  11.284 -0.1152  0.1921  0.5864
15581SOL    HW248185   3.342   4.097  11.223  1.0431  0.6537  1.8960
15582SOL     OW48186   3.682   3.712   9.853 -0.2448 -0.1270 -0.9090
15582SOL    HW148187   3.646   3.759   9.778 -1.4946  0.2322 -0.1031
15582SOL    HW248188   3.620   3.641   9.870  0.4141 -0.6548 -0.6629
15583SOL     OW48189   3.254   3.668   9.925  0.6973 -0.2369 -0.3385
15583SOL    HW148190   3.177   3.624   9.889  0.1933  0.3113  0.0452
15583SOL    HW248191   3.327   3.611   9.904  0.0315 -1.3682  0.3422
15584SOL     OW48192   4.683   4.467   9.208 -0.3752 -0.2592 -0.0988
15584SOL    HW148193   4.737   4.390   9.220 -0.7254 -0.5625 -0.4589
15584SOL    HW248194   4.593   4.435   9.212 -0.5275 -0.1051 -1.7212
15585SOL     OW48195   3.216   7.562  10.225 -0.2051 -0.0974 -0.4611
15585SOL    HW148196   3.296   7.613  10.210  0.5621 -0.9280  0.6212
15585SOL    HW248197   3.178   7.551  10.138 -0.1071  1.8239 -0.7932
15586SOL     OW48198   3.887   3.329  10.532 -0.0127 -0.3808 -0.1757
15586SOL    HW148199   3.792   3.331  10.527  0.0234  0.3981 -0.8363
15586SOL    HW248200   3.916   3.324  10.441  0.5773  1.2823 -0.1216
15587SOL     OW48201   3.625   3.610  10.442  0.6323  0.5161 -0.2710
15587SOL    HW148202   3.595   3.538  10.498  2.2300 -0.8764 -1.1144
15587SOL    HW248203   3.640   3.683  10.502  0.3137 -0.2816  0.8138
15588SOL     OW48204   3.509   3.878  10.117  0.1021  0.6214 -0.3928
15588SOL    HW148205   3.430   3.906  10.072  1.3747  2.2534 -1.7399
15588SOL    HW248206   3.577   3.880  10.050  1.5258  0.3518  0.9753
15589SOL     OW48207   5.602   5.007  10.282  0.2687 -0.0487 -0.5798
15589SOL    HW148208   5.681   4.965  10.316  1.4237 -0.1229 -3.1571
15589SOL    HW248209   5.601   5.093  10.325  1.6700 -0.1031 -0.3808
15590SOL     OW48210   3.320   3.784  11.195 -0.1866 -0.4231  0.0975
15590SOL    HW148211   3.407   3.803  11.230 -0.2108  0.6829 -0.4043
15590SOL    HW248212   3.260   3.835  11.251 -0.3536  0.1637 -0.5950
15591SOL     OW48213   4.839   3.890   9.666 -0.6346  0.1010 -0.1746
15591SOL    HW148214   4.750   3.875   9.697 -0.2400  0.3793  1.1493
15591SOL    HW248215   4.884   3.807   9.680 -1.4713 -1.1717 -3.9588
15592SOL     OW48216   5.136   6.796   9.140  0.2402  0.2794 -0.1732
15592SOL    HW148217   5.183   6.790   9.223 -0.9696  0.5514  0.5641
15592SOL    HW248218   5.084   6.877   9.148 -2.3070 -1.2713  0.1617
15593SOL     OW48219   4.656   5.014   9.039 -0.3368  0.4541  0.7917
15593SOL    HW148220   4.629   4.979   8.955 -0.5383  1.4363  0.4352
15593SOL    HW248221   4.745   5.047   9.024 -0.0376 -0.1410  1.1985
15594SOL     OW48222   4.374   4.994   0.677  0.7259  0.3385  0.9034
15594SOL    HW148223   4.428   5.073   0.673 -1.4076  1.8590  0.2759
15594SOL    HW248224   4.309   5.006   0.609  0.7599 -2.3710  0.2715
15595SOL     OW48225   5.423   3.855  10.083  0.1893  0.3657 -0.0038
15595SOL    HW148226   5.351   3.837  10.022  1.4888 -4.2923 -0.5492
15595SOL    HW248227   5.488   3.902  10.030 -0.2501 -0.2283 -1.0986
15596SOL     OW48228   5.335   6.964   9.942  0.3683  0.1311 -0.5886
15596SOL    HW148229   5.416   6.988   9.897  0.3729 -2.2035 -2.0013
15596SOL    HW248230   5.323   6.871   9.921 -1.6056 -0.1042  1.2851
15597SOL     OW48231   3.940   5.380  11.746  0.1405 -0.6356 -0.9221
15597SOL    HW148232   3.918   5.471  11.763 -3.4372 -1.3646 -0.8361
15597SOL    HW248233   4.032   5.372  11.772  0.0631  2.4877  0.8097
15598SOL     OW48234   5.830   4.648   9.569 -0.8080  0.2433 -0.2001
15598SOL    HW148235   5.744   4.681   9.541 -0.0504  1.7592 -0.8458
15598SOL    HW248236   5.892   4.687   9.507  0.3877 -0.5957  0.4262
15599SOL     OW48237   3.872   4.493  10.383  0.3572  0.1665  0.0596
15599SOL    HW148238   3.781   4.487  10.413  0.9361 -0.9650  1.7348
15599SOL    HW248239   3.879   4.428  10.314 -0.5644  1.6157 -1.4736
15600SOL     OW48240   3.220   5.741   9.912  0.7533 -0.0489  0.5984
15600SOL    HW148241   3.283   5.683   9.869  1.5506  1.6987 -0.6663
15600SOL    HW248242   3.156   5.762   9.845 -0.4916 -0.7397  1.5139
15601SOL     OW48243   4.061   5.793  10.182 -0.4023  0.0661  0.3465
15601SOL    HW148244   4.004   5.843  10.241 -0.3753  0.4893  0.0207
15601SOL    HW248245   4.008   5.776  10.105 -0.1793  0.2205  0.1565
15602SOL     OW48246   5.543   5.563  10.200  0.0234 -0.4049 -0.4129
15602SOL    HW148247   5.551   5.469  10.211 -0.2691 -0.2524  1.3314
15602SOL    HW248248   5.583   5.601  10.278 -0.9401  0.8714 -0.4874
15603SOL     OW48249   3.629   2.569  10.898 -0.0800  0.3843 -0.3401
15603SOL    HW148250   3.698   2.626  10.864 -2.3736  2.3808 -2.0772
15603SOL    HW248251   3.648   2.483  10.861  2.2428  0.4823  0.4710
15604SOL     OW48252   4.836   5.214   8.769 -0.1174 -0.5495  0.4821
15604SOL    HW148253   4.792   5.244   8.849  1.0166 -0.8071  1.2189
15604SOL    HW248254   4.811   5.279   8.703 -1.5828 -0.6800  0.8607
15605SOL     OW48255   3.536   4.507   9.612 -0.7146  0.3924  0.2864
15605SOL    HW148256   3.510   4.454   9.537  0.0899  0.3094  0.0509
15605SOL    HW248257   3.479   4.478   9.683 -0.5480 -0.5197  0.0632
15606SOL     OW48258   4.071   4.227   9.119  0.1399  0.3240  0.0013
15606SOL    HW148259   4.033   4.265   9.039  1.1478 -0.6673 -0.9931
15606SOL    HW248260   4.165   4.231   9.105  0.3742  1.1320  1.6542
15607SOL     OW48261   4.838   4.806   8.803  0.2560  0.6451 -0.0585
15607SOL    HW148262   4.809   4.730   8.754  0.9942  0.2099  0.1673
15607SOL    HW248263   4.757   4.841   8.842 -0.1101  0.0809 -0.2924
15608SOL     OW48264   4.489   4.626   9.794  0.0471 -0.1420  0.3961
15608SOL    HW148265   4.403   4.587   9.776 -0.2163 -0.3942  2.0841
15608SOL    HW248266   4.528   4.568   9.859  1.5946 -0.1306 -0.4791
15609SOL     OW48267   4.598   5.070   9.831 -0.1325 -0.1723 -0.2352
15609SOL    HW148268   4.660   5.110   9.893 -1.3484  1.4804 -0.0085
15609SOL    HW248269   4.525   5.040   9.885 -1.0680  1.0082 -0.7900
15610SOL     OW48270   4.645   3.734  10.183  0.4750  0.8394 -0.8310
15610SOL    HW148271   4.586   3.727  10.259  1.3106  1.6182 -0.0978
15610SOL    HW248272   4.682   3.646  10.173 -0.5377  0.4246 -1.0979
15611SOL     OW48273   6.157   4.174   9.212 -0.2726  0.1664 -0.7929
15611SOL    HW148274   6.162   4.079   9.195  0.8075 -0.0536  0.5722
15611SOL    HW248275   6.142   4.180   9.306 -1.6714  1.3647 -1.0647
15612SOL     OW48276   3.528   5.207   9.941 -0.6393 -0.1585 -0.4686
15612SOL    HW148277   3.530   5.111   9.933 -2.1271 -0.1683 -1.1927
15612SOL    HW248278   3.499   5.237   9.855 -2.8697  0.7281  0.5027
15613SOL     OW48279   5.133   4.195   9.982 -0.0023  0.4274 -0.2158
15613SOL    HW148280   5.196   4.264   9.963 -0.2482  0.1175 -2.5024
15613SOL    HW248281   5.069   4.202   9.911 -2.7462  0.9015  2.1235
15614SOL     OW48282   3.015   5.980   9.363  0.8238  0.2891 -0.8085
15614SOL    HW148283   3.053   5.910   9.310  0.5126 -0.1805 -0.4150
15614SOL    HW248284   2.975   6.039   9.299  3.8127  1.8643 -1.4317
15615SOL     OW48285   4.425   4.097  10.021  0.0990  0.5700 -0.1647
15615SOL    HW148286   4.358   4.131   9.960  0.8551  1.0834 -0.7366
15615SOL    HW248287   4.377   4.038  10.078 -0.6602  0.1251 -1.2169
15616SOL     OW48288   4.165   4.716  11.807  0.7144  0.0929 -0.6244
15616SOL    HW148289   4.076   4.746  11.786  0.0953 -0.8136  0.5637
15616SOL    HW248290   4.208   4.709  11.722 -0.1801  1.0591 -1.1848
15617SOL     OW48291   4.327   4.273   9.026  0.0724 -0.0736 -0.1978
15617SOL    HW148292   4.382   4.198   9.047  0.0508 -0.0559 -0.0763
15617SOL    HW248293   4.312   4.266   8.932  0.2353 -0.1092 -0.2205
15618SOL     OW48294   3.095   4.655  11.722 -0.3041 -0.1035 -0.0899
15618SOL    HW148295   3.097   4.663  11.627  3.3316  1.6987 -0.0366
15618SOL    HW248296   3.168   4.596  11.743 -0.4981  0.1893  1.6010
15619SOL     OW48297   5.295   3.323   9.310 -0.0144 -0.3040 -0.2819
15619SOL    HW148298   5.271   3.375   9.233  1.3735 -0.3778 -0.7943
15619SOL    HW248299   5.298   3.233   9.278 -0.9393 -0.5257  0.2399
15620SOL     OW48300   4.558   5.656  10.960 -0.5797  0.3805  0.1921
15620SOL    HW148301   4.545   5.561  10.960  1.0277  0.1122  1.6819
15620SOL    HW248302   4.497   5.688  11.026 -1.1622  0.4097 -0.3491
15621SOL     OW48303   4.893   7.191   9.830 -0.0702 -0.7008  0.0521
15621SOL    HW148304   4.928   7.265   9.880 -0.7085 -0.0687 -0.4182
15621SOL    HW248305   4.942   7.115   9.863  1.6531  0.1153 -0.4879
15622SOL     OW48306   3.989   4.322  10.172 -0.2133 -0.5706 -0.2354
15622SOL    HW148307   3.916   4.315  10.111 -0.6283  1.2790 -0.0086
15622SOL    HW248308   4.017   4.231  10.187 -2.9937 -1.4120  0.3586
15623SOL     OW48309   5.150   5.426  10.807  0.1667  0.1590 -0.0961
15623SOL    HW148310   5.102   5.508  10.817  1.1693  0.6514  0.8821
15623SOL    HW248311   5.164   5.396  10.897 -1.9514 -2.1907 -0.4253
15624SOL     OW48312   3.948   5.888   0.453 -0.6240  0.3561 -0.1414
15624SOL    HW148313   3.920   5.856   0.539 -0.0433 -0.5175 -0.2673
15624SOL    HW248314   3.951   5.810   0.398 -2.0385  1.0421 -1.2694
15625SOL     OW48315   4.997   6.334   9.300  0.1970  0.7270 -0.2485
15625SOL    HW148316   5.034   6.247   9.314 -0.6372 -0.0861 -2.5662
15625SOL    HW248317   5.014   6.381   9.381  0.4066 -1.6947  1.2020
15626SOL     OW48318   6.328   4.678   9.103  0.2619 -0.4574 -0.1736
15626SOL    HW148319   6.323   4.591   9.143  1.9657 -0.9050 -0.8500
15626SOL    HW248320   6.391   4.726   9.157 -0.8005  0.4510  0.3066
15627SOL     OW48321   3.703   5.409   8.549 -0.0837  0.1969 -0.0223
15627SOL    HW148322   3.718   5.387   8.457  1.4848 -1.4028  0.5584
15627SOL    HW248323   3.623   5.362   8.572 -0.5983  0.7675 -0.6014
15628SOL     OW48324   4.039   3.309  11.800 -0.4584  0.1104 -0.0965
15628SOL    HW148325   4.083   3.319  11.715 -0.2918 -0.0067 -0.0242
15628SOL    HW248326   3.992   3.391  11.812  0.3771  0.5680  0.1894
15629SOL     OW48327   6.358   6.654  12.198 -0.5399  0.6702  0.0271
15629SOL    HW148328   6.365   6.565  12.233  1.7987  1.0571  0.7235
15629SOL    HW248329   6.279   6.652  12.144 -0.6342 -1.7737  0.1184
15630SOL     OW48330   2.510   6.229   8.316 -0.0268 -0.0921  0.3315
15630SOL    HW148331   2.563   6.257   8.390 -0.3139  1.5044 -0.0446
15630SOL    HW248332   2.569   6.233   8.241 -0.0333 -0.6541  0.2912
15631SOL     OW48333   4.438   5.174  10.848 -0.1916 -0.5068 -0.2491
15631SOL    HW148334   4.439   5.080  10.829  1.8761 -0.4981 -0.4196
15631SOL    HW248335   4.523   5.191  10.888 -0.2149  1.4275 -0.9181
15632SOL     OW48336   4.358   4.511   9.501  0.0893  0.2673  0.5662
15632SOL    HW148337   4.409   4.495   9.422  0.1108  1.6010  0.2798
15632SOL    HW248338   4.273   4.469   9.484  0.3797 -0.1814  0.1909
15633SOL     OW48339   4.768   4.138  11.775 -0.0466 -0.4268  0.9164
15633SOL    HW148340   4.779   4.233  11.773  1.4381 -0.5750 -0.1178
15633SOL    HW248341   4.852   4.103  11.745 -1.4952 -1.9883 -1.8256
15634SOL     OW48342   4.758   5.175  10.325 -0.0146  0.2907  0.2717
15634SOL    HW148343   4.697   5.172  10.398  0.3001 -2.0957  0.4949
15634SOL    HW248344   4.825   5.110  10.346  1.2159  1.0020 -1.1962
15635SOL     OW48345   4.194   4.789  11.245  0.0291 -0.6420  0.1162
15635SOL    HW148346   4.166   4.780  11.336 -1.5656  3.6918  0.2894
15635SOL    HW248347   4.126   4.743  11.195 -1.0812 -0.0618  1.0371
15636SOL     OW48348   1.362   4.345   9.511  0.1894 -0.3904  0.5752
15636SOL    HW148349   1.283   4.391   9.483 -0.7752 -1.1555  1.9572
15636SOL    HW248350   1.362   4.264   9.459  1.4422  0.6923 -1.2411
15637SOL     OW48351   4.830   3.748  10.795 -0.9081 -0.3807 -0.0861
15637SOL    HW148352   4.800   3.664  10.830 -1.3837 -0.5457 -0.8761
15637SOL    HW248353   4.922   3.733  10.772 -1.0405 -0.7315 -0.3828
15638SOL     OW48354   5.197   2.854  10.102  0.7146 -0.0641 -0.1855
15638SOL    HW148355   5.185   2.928  10.043  0.5280  0.3185  0.3220
15638SOL    HW248356   5.176   2.777  10.049 -0.1248  0.3193 -0.4298
15639SOL     OW48357   3.540   3.297  10.980 -0.1588  0.2255 -0.4341
15639SOL    HW148358   3.479   3.238  11.023 -0.7784  0.2388 -1.2806
15639SOL    HW248359   3.513   3.385  11.008  0.2103  0.1659  0.1199
15640SOL     OW48360   6.573   6.760   9.798  0.7990  0.0425  0.0604
15640SOL    HW148361   6.649   6.746   9.741  1.0143 -0.4806  0.4676
15640SOL    HW248362   6.507   6.799   9.741  0.7992 -1.0227 -0.6862
15641SOL     OW48363   3.746   4.667  10.723 -0.3827 -0.9140  0.3298
15641SOL    HW148364   3.659   4.703  10.703  0.1474  0.5161  0.4787
15641SOL    HW248365   3.794   4.675  10.641  0.3298  0.5760  0.8419
15642SOL     OW48366   4.923   0.010   9.339 -0.0839  0.9256  0.4592
15642SOL    HW148367   4.882   0.074   9.397  0.1044  1.9852 -0.5444
15642SOL    HW248368   4.934  -0.068   9.394  0.7269  2.1019  2.0496
15643SOL     OW48369   4.656   1.509  10.748 -0.4654  0.1601 -0.1839
15643SOL    HW148370   4.692   1.420  10.755 -0.4006 -0.0460 -2.5309
15643SOL    HW248371   4.571   1.497  10.706 -1.4050  1.0724  1.3540
15644SOL     OW48372   5.787   2.055   9.504  0.3342  0.2773  0.4808
15644SOL    HW148373   5.879   2.079   9.501  1.1770 -2.5303  0.9805
15644SOL    HW248374   5.769   2.017   9.418 -0.2639  0.4321  0.5294
15645SOL     OW48375   6.168   4.879  12.069  0.4303  0.0619 -0.2738
15645SOL    HW148376   6.127   4.806  12.023  0.3291  1.5035 -2.6396
15645SOL    HW248377   6.100   4.947  12.073  0.5042  0.0791  1.9162
15646SOL     OW48378   4.994   6.043  10.839  0.0910 -0.5158  0.5310
15646SOL    HW148379   5.002   5.979  10.910  0.7969 -0.3830  0.5792
15646SOL    HW248380   4.907   6.080  10.851 -0.5900 -1.9153  0.1162
15647SOL     OW48381   4.105   3.586  12.082 -0.0620  0.0411 -0.0741
15647SOL    HW148382   4.066   3.591  12.169 -0.7260  0.2056 -0.3763
15647SOL    HW248383   4.189   3.631  12.092 -0.1894  0.1782  0.4470
15648SOL     OW48384   1.872   4.460   9.238 -0.2450 -0.5897  0.7093
15648SOL    HW148385   1.835   4.399   9.174 -2.5625 -0.4152  1.7989
15648SOL    HW248386   1.937   4.407   9.286 -0.6760 -1.5914  0.2282
15649SOL     OW48387   4.593   5.425   9.796  0.2961  0.0496  0.0596
15649SOL    HW148388   4.642   5.507   9.791 -0.0188  0.2821  0.6149
15649SOL    HW248389   4.564   5.420   9.888 -0.6910 -0.0834 -0.2424
15650SOL     OW48390   4.068   4.604  11.483 -0.3109 -0.2098  0.1889
15650SOL    HW148391   4.009   4.655  11.539 -1.4440 -2.2964  0.9759
15650SOL    HW248392   4.013   4.534  11.448  1.5429 -1.8815  0.4685
15651SOL     OW48393   4.239   3.904  11.393  0.1113 -0.1254  0.2239
15651SOL    HW148394   4.311   3.891  11.455  0.5467 -1.2891 -0.4929
15651SOL    HW248395   4.231   3.820  11.348 -1.5137  0.0808  0.0822
15652SOL     OW48396   5.589   4.717   0.084  0.3858 -0.1198 -0.4392
15652SOL    HW148397   5.570   4.791   0.141 -1.0919  0.2071 -1.3045
15652SOL    HW248398   5.680   4.694   0.104 -0.5883 -1.4052  3.5944
15653SOL     OW48399   5.816   4.944  10.716  0.2609 -0.0251  0.8252
15653SOL    HW148400   5.731   4.923  10.677  0.9547  0.1332 -0.8484
15653SOL    HW248401   5.794   4.989  10.798 -1.3296  1.3502 -0.2757
15654SOL     OW48402   6.053   4.659  12.008  0.3907 -0.2327  0.5938
15654SOL    HW148403   5.967   4.661  11.966  0.3529 -1.5442  0.5730
15654SOL    HW248404   6.074   4.566  12.016  1.2774  0.0329  1.6815
15655SOL     OW48405   5.189   4.939  11.865 -0.2457 -0.6837  0.0722
15655SOL    HW148406   5.120   5.000  11.840 -0.7423 -1.0403  0.5665
15655SOL    HW248407   5.147   4.877  11.924  0.4278 -1.0760  0.1513
15656SOL     OW48408   5.347   5.584  11.716 -0.5480 -0.2947 -0.6185
15656SOL    HW148409   5.383   5.641  11.785 -0.8332 -0.4429 -0.3476
15656SOL    HW248410   5.262   5.622  11.695 -2.0218 -2.1372  1.5046
15657SOL     OW48411   4.771   4.716  11.359  0.0298 -0.1562 -0.2082
15657SOL    HW148412   4.831   4.641  11.356 -1.2855 -1.3229  1.1946
15657SOL    HW248413   4.794   4.761  11.440  1.6099  1.7547 -1.5933
15658SOL     OW48414   3.643   3.184   0.197  0.0928 -0.0348 -0.4620
15658SOL    HW148415   3.550   3.178   0.175 -0.5789 -1.3315  2.2182
15658SOL    HW248416   3.650   3.263   0.251  1.2477  1.8566 -3.2076
15659SOL     OW48417   5.443   3.600  11.799 -0.5799  0.1758  0.0559
15659SOL    HW148418   5.420   3.604  11.892 -0.1600  1.7290  0.1236
15659SOL    HW248419   5.533   3.632  11.794 -0.3787 -0.4803 -0.8231
15660SOL     OW48420   3.796   5.775   0.198 -0.1944 -0.2495  0.2919
15660SOL    HW148421   3.892   5.777   0.204 -0.1340  3.8293  0.3760
15660SOL    HW248422   3.778   5.769   0.104  0.0833 -0.8731  0.2679
15661SOL     OW48423   4.527   3.673   0.675  0.7008 -0.2146  0.8035
15661SOL    HW148424   4.485   3.610   0.734 -0.4353 -1.9321 -1.6463
15661SOL    HW248425   4.615   3.637   0.661 -0.2310 -1.9049 -1.2787
15662SOL     OW48426   4.331   6.276  10.066 -0.0774 -0.3628  0.2704
15662SOL    HW148427   4.372   6.249  10.148  0.3796 -0.5208 -0.0093
15662SOL    HW248428   4.284   6.199  10.036 -1.2785  0.0478  1.0029
15663SOL     OW48429   4.257   3.738   0.747  0.5466  0.0124  0.2373
15663SOL    HW148430   4.315   3.665   0.769  1.8073  0.9755  0.1794
15663SOL    HW248431   4.297   3.815   0.787 -0.9058  0.6543  0.5366
15664SOL     OW48432   5.100   5.237  12.096  0.1279  0.8835  0.4985
15664SOL    HW148433   5.110   5.329  12.072  2.1263  0.3398 -1.0659
15664SOL    HW248434   5.179   5.195  12.061 -0.1913 -1.2450  2.1385
15665SOL     OW48435   4.487   6.007  10.620  0.3909  0.1407  0.6910
15665SOL    HW148436   4.407   5.961  10.646  0.2842 -0.2191 -0.2415
15665SOL    HW248437   4.557   5.945  10.639  0.3233 -0.0786  0.2313
15666SOL     OW48438   5.211   6.350  12.165 -0.2542 -0.8172 -0.3775
15666SOL    HW148439   5.288   6.393  12.129  0.6108 -2.6692 -0.8810
15666SOL    HW248440   5.180   6.292  12.094 -2.4767  0.2738 -0.4009
15667SOL     OW48441   6.503   2.335   0.045  0.0192 -0.0965 -0.3627
15667SOL    HW148442   6.495   2.246   0.012 -0.4198 -0.8592  1.6804
15667SOL    HW248443   6.446   2.338   0.122  2.2083  1.0513  1.3444
15668SOL     OW48444   4.504   4.295   0.576  0.2541 -0.0359 -0.1940
15668SOL    HW148445   4.568   4.225   0.564  0.8502  0.2408  1.2241
15668SOL    HW248446   4.445   4.262   0.644  0.2311  0.6196  0.1124
15669SOL     OW48447   4.155   6.321  12.443  0.8454  0.3830  0.0262
15669SOL    HW148448   4.137   6.405  12.401 -0.2661 -0.4412 -1.1880
15669SOL    HW248449   4.073   6.296  12.485  1.7613  0.9133  2.3362
15670SOL     OW48450   4.700   3.080  12.160  0.2661 -0.3284  0.3328
15670SOL    HW148451   4.717   3.149  12.096  0.0329 -0.1390  0.4745
15670SOL    HW248452   4.619   3.107  12.204  0.5235 -0.3575  0.8366
15671SOL     OW48453   3.471   4.394   1.230  0.1745  0.5987  0.3789
15671SOL    HW148454   3.443   4.312   1.191  0.3997  1.1417 -0.9772
15671SOL    HW248455   3.398   4.420   1.286 -0.3837  0.0586 -0.0905
15672SOL     OW48456   3.829   4.870  10.315 -0.4732 -1.1554  0.2277
15672SOL    HW148457   3.863   4.869  10.405  1.2190  1.8293 -0.2482
15672SOL    HW248458   3.734   4.881  10.326 -0.2695 -0.5691  1.6616
15673SOL     OW48459   3.477   7.408   1.678 -0.1559 -0.4804 -0.0443
15673SOL    HW148460   3.451   7.453   1.758  2.5157  0.4047  0.4131
15673SOL    HW248461   3.538   7.467   1.636 -1.6411 -0.8405 -2.9254
15674SOL     OW48462   5.716   5.874  11.151  0.3100 -0.2860 -0.6038
15674SOL    HW148463   5.689   5.931  11.223  0.8737 -1.1906  0.3518
15674SOL    HW248464   5.798   5.834  11.181  0.7180 -0.4622 -1.8716
15675SOL     OW48465   3.504   3.435   0.033 -0.3311  0.1652 -0.4639
15675SOL    HW148466   3.598   3.421   0.035 -0.1225  1.4589 -0.3608
15675SOL    HW248467   3.473   3.382  -0.041  0.6711  0.8049 -1.3671
15676SOL     OW48468   6.154   6.051  11.403 -0.5875  0.3844 -0.2484
15676SOL    HW148469   6.182   6.117  11.340 -0.8369 -0.4352 -1.2297
15676SOL    HW248470   6.197   5.971  11.375 -0.1692  0.1438  1.0251
15677SOL     OW48471   5.760   6.447  11.914 -0.6000 -0.2691  0.0754
15677SOL    HW148472   5.844   6.455  11.870 -1.0685 -0.5994 -0.9200
15677SOL    HW248473   5.703   6.509  11.870 -1.5929 -1.9373 -1.1146
15678SOL     OW48474   5.983   3.204  12.010 -0.1465 -0.0099  0.5779
15678SOL    HW148475   5.956   3.295  12.007 -0.0512  0.1344  2.4778
15678SOL    HW248476   6.050   3.201  12.079  0.6931 -1.3163 -0.2402
15679SOL     OW48477   5.485   6.187  11.457 -0.4186  0.0372  0.2076
15679SOL    HW148478   5.441   6.249  11.398  0.7298  1.1049  0.4346
15679SOL    HW248479   5.413   6.146  11.505 -1.1776  2.7455  1.5922
15680SOL     OW48480   3.499   4.794  11.591  0.3960  0.4363 -0.4440
15680SOL    HW148481   3.408   4.823  11.595  0.1708 -0.3186  0.3376
15680SOL    HW248482   3.539   4.829  11.671  0.8338  0.8974 -0.8645
15681SOL     OW48483   3.859   3.610   0.166  0.9786  0.7156  0.2711
15681SOL    HW148484   3.795   3.672   0.131  2.5447  1.6867 -0.9969
15681SOL    HW248485   3.873   3.547   0.095  2.0517  1.0257  0.1861
15682SOL     OW48486   4.880   5.700   0.263 -0.6954 -0.0879 -0.0189
15682SOL    HW148487   4.835   5.743   0.191  1.9740  1.7276 -0.7803
15682SOL    HW248488   4.877   5.607   0.242 -0.1178  0.3908 -2.4484
15683SOL     OW48489   2.960   3.414  11.283 -0.0125 -0.1602  0.3333
15683SOL    HW148490   3.005   3.490  11.319  2.1498 -1.7966  1.2876
15683SOL    HW248491   2.898   3.388  11.352 -0.5148  0.4924  0.1438
15684SOL     OW48492   3.800   4.665  10.120  0.3747  0.1448  0.0582
15684SOL    HW148493   3.815   4.745  10.169  0.8781 -0.5690  1.1143
15684SOL    HW248494   3.740   4.614  10.175  0.8530 -0.6261 -0.1152
15685SOL     OW48495   4.747   4.828   0.307  0.8278 -0.1520 -0.4065
15685SOL    HW148496   4.762   4.912   0.264 -0.7578  0.6094  0.4624
15685SOL    HW248497   4.828   4.810   0.354  1.2278  0.8129 -0.7074
15686SOL     OW48498   5.389   2.201   0.802  0.0119  0.7395  0.1120
15686SOL    HW148499   5.357   2.110   0.809 -1.4534  1.2433  0.4441
15686SOL    HW248500   5.385   2.221   0.709  0.3647  0.4607  0.0344
15687SOL     OW48501   4.174   3.241  12.462  0.1497  0.0152  0.3320
15687SOL    HW148502   4.226   3.306  12.413 -1.0325 -0.6097 -1.8638
15687SOL    HW248503   4.192   3.158  12.419 -0.2745 -0.7402  1.5470
15688SOL     OW48504   6.395   5.034  12.136 -0.0178 -0.0869 -0.1795
15688SOL    HW148505   6.452   4.974  12.184  1.1008  1.6335  0.7451
15688SOL    HW248506   6.317   4.983  12.118  0.5661 -1.5885  1.2692
15689SOL     OW48507   5.361   2.894  11.635 -0.0355 -0.1171  0.0874
15689SOL    HW148508   5.376   2.961  11.702  0.3265 -0.4760  0.3724
15689SOL    HW248509   5.449   2.862  11.614  0.2864  2.2828 -2.9879
15690SOL     OW48510   6.102   4.974  11.251  0.0987  0.2450 -0.2919
15690SOL    HW148511   6.098   4.991  11.157 -1.3175 -0.8568 -0.4534
15690SOL    HW248512   6.117   4.880  11.258 -0.3764  0.2257  0.5923
15691SOL     OW48513   4.831   5.937  12.063 -0.1594 -0.0291  0.5678
15691SOL    HW148514   4.810   5.921  12.155 -2.9792 -0.3491 -0.0324
15691SOL    HW248515   4.837   6.033  12.057 -0.5253  0.0239  0.9758
15692SOL     OW48516   6.528   4.769  12.178 -0.0767  0.4428  0.8447
15692SOL    HW148517   6.616   4.758  12.142  0.3415  1.7954  1.3743
15692SOL    HW248518   6.497   4.680  12.194  0.3602 -0.1341 -1.2552
15693SOL     OW48519   3.457   5.393   0.113  0.0456 -0.2653 -0.0605
15693SOL    HW148520   3.545   5.399   0.075 -0.4107  1.6866 -0.9279
15693SOL    HW248521   3.405   5.350   0.046 -0.6800  2.8695 -1.6929
15694SOL     OW48522   4.423   3.976  11.049  0.0025 -0.0262 -0.0247
15694SOL    HW148523   4.496   4.037  11.042 -0.3843  0.4492 -0.0026
15694SOL    HW248524   4.445   3.920  11.123  0.3266  0.1410  0.0048
15695SOL     OW48525   3.627   3.211  10.194  0.2974  0.4463  0.0146
15695SOL    HW148526   3.575   3.141  10.154  0.3027  0.1687  0.4845
15695SOL    HW248527   3.646   3.272  10.122 -1.1449  0.8399 -0.0598
15696SOL     OW48528   5.765   2.870  11.110  0.8047 -0.3563 -0.4257
15696SOL    HW148529   5.688   2.863  11.167  1.0937 -0.9546 -0.1032
15696SOL    HW248530   5.735   2.923  11.036  0.0136 -0.7808 -0.4234
15697SOL     OW48531   5.713   7.326   0.135  0.2072 -0.3989 -0.2271
15697SOL    HW148532   5.618   7.317   0.127  0.2032 -1.5619  0.7991
15697SOL    HW248533   5.747   7.242   0.107  0.8150 -0.5734  0.9549
15698SOL     OW48534   5.838   5.360  11.915  0.4184 -0.0386  0.0135
15698SOL    HW148535   5.796   5.275  11.924 -0.4133  0.3998  0.3782
15698SOL    HW248536   5.838   5.377  11.821 -2.3134  0.9455  0.1088
15699SOL     OW48537   4.548   2.336  11.485 -0.1317 -0.0861  0.2020
15699SOL    HW148538   4.550   2.420  11.439  1.0212 -0.5701 -0.6921
15699SOL    HW248539   4.546   2.360  11.578 -2.9264  0.9235 -0.0220
15700SOL     OW48540   4.047   4.886  10.697  0.2187 -0.4851 -0.5343
15700SOL    HW148541   4.044   4.973  10.658 -0.4432  0.1747  0.9115
15700SOL    HW248542   3.986   4.834  10.644 -0.9187  0.4723 -0.2183
15701SOL     OW48543   3.758   4.103  12.444 -0.1343 -0.1153 -0.0020
15701SOL    HW148544   3.803   4.180  12.410 -0.2510  0.2087  0.5717
15701SOL    HW248545   3.759   4.040  12.371 -0.6136  0.6645 -0.7008
15702SOL     OW48546   5.020   3.675   0.631  0.5135 -0.2477 -0.4712
15702SOL    HW148547   5.087   3.607   0.639  1.1184  0.2504 -1.2198
15702SOL    HW248548   5.061   3.753   0.667 -0.9847 -0.7268  2.6870
15703SOL     OW48549   6.231   6.794  10.611 -0.9916  0.0883  0.0712
15703SOL    HW148550   6.291   6.855  10.654  1.6676 -1.3018 -1.4060
15703SOL    HW248551   6.243   6.810  10.518 -2.5619 -0.6547 -0.3005
15704SOL     OW48552   3.774   3.795  10.925 -0.1599  0.2470 -0.0931
15704SOL    HW148553   3.783   3.714  10.874  1.4880  0.5131 -0.3072
15704SOL    HW248554   3.796   3.865  10.863 -0.1718  0.7345  0.4462
15705SOL     OW48555   4.870   6.553  11.079  0.4455 -0.3198 -0.4359
15705SOL    HW148556   4.838   6.471  11.117  0.8240 -0.8685 -1.2748
15705SOL    HW248557   4.863   6.540  10.985 -1.8043  1.5393 -0.6071
15706SOL     OW48558   3.739   3.229  11.930 -0.0937 -0.6082 -0.1965
15706SOL    HW148559   3.781   3.278  11.860 -0.9228 -0.2089 -0.4234
15706SOL    HW248560   3.670   3.287  11.962 -0.5969 -1.3232  0.0338
15707SOL     OW48561   3.619   2.647   0.345 -0.0576 -0.7306  0.0320
15707SOL    HW148562   3.532   2.623   0.312 -0.2911  0.8627 -0.6168
15707SOL    HW248563   3.635   2.734   0.307  1.1093 -0.2768  1.4978
15708SOL     OW48564   5.872   5.103  12.386  0.0260 -0.3634  0.0053
15708SOL    HW148565   5.785   5.076  12.414  0.3304 -0.7152  0.6387
15708SOL    HW248566   5.884   5.189  12.426  0.0713 -0.4309  0.1379
15709SOL     OW48567   4.107   5.777  11.689 -0.5860  0.5125  0.7156
15709SOL    HW148568   4.135   5.818  11.607 -1.5969  0.1289  0.1577
15709SOL    HW248569   4.172   5.805  11.754  1.2548 -0.5900 -0.5636
15710SOL     OW48570   3.431   3.467   0.321 -0.0857  0.1837  0.2190
15710SOL    HW148571   3.512   3.443   0.365  0.0124 -0.2542 -0.1824
15710SOL    HW248572   3.449   3.451   0.228 -0.4600  0.5795  0.0764
15711SOL     OW48573   6.371   3.168  11.513 -0.0139  0.4251 -0.2375
15711SOL    HW148574   6.402   3.210  11.594 -0.9085 -0.6047  0.6685
15711SOL    HW248575   6.313   3.098  11.543  0.6837 -0.8436 -1.7413
15712SOL     OW48576   6.235   4.347  11.758 -0.3353  0.0369  0.6155
15712SOL    HW148577   6.152   4.378  11.794 -0.1826  0.6877  0.4237
15712SOL    HW248578   6.259   4.272  11.813 -0.7969  0.1606  0.9908
15713SOL     OW48579   4.489   3.232   0.226  0.0052 -0.5532  0.0626
15713SOL    HW148580   4.525   3.283   0.298 -1.4567 -2.0506  1.9606
15713SOL    HW248581   4.398   3.263   0.218  0.8017  1.4299 -2.9821
15714SOL     OW48582   5.342   3.566  11.323 -0.2428 -0.4871  0.0408
15714SOL    HW148583   5.320   3.554  11.415  0.4529 -0.6173  0.1963
15714SOL    HW248584   5.423   3.516  11.310 -0.7057 -1.0397 -0.8094
15715SOL     OW48585   3.559   4.119  11.546  0.1539  0.8567  0.1474
15715SOL    HW148586   3.556   4.173  11.626 -0.5853 -0.3399  0.9605
15715SOL    HW248587   3.554   4.183  11.475 -0.4167  1.8929  1.0697
15716SOL     OW48588   4.043   3.521  10.752 -0.4912  0.4950 -0.5970
15716SOL    HW148589   4.092   3.443  10.779 -0.1348 -0.2048 -3.0159
15716SOL    HW248590   4.062   3.530  10.658 -1.6227  2.7108 -0.6728
15717SOL     OW48591   5.985   5.589   0.161 -0.4018 -0.1350 -0.0199
15717SOL    HW148592   6.004   5.682   0.163 -1.6800  0.2053 -1.8199
15717SOL    HW248593   5.949   5.569   0.247  0.5080  0.8611  0.6107
15718SOL     OW48594   6.084   3.338   0.977 -0.1832 -0.3111  0.0969
15718SOL    HW148595   5.993   3.333   0.949  0.0186 -1.2291 -0.4351
15718SOL    HW248596   6.118   3.417   0.934 -0.8825  0.3916  0.8041
15719SOL     OW48597   5.653   6.624  12.299 -0.7583 -0.0578 -0.2447
15719SOL    HW148598   5.683   6.603  12.210 -0.2849  1.6033 -0.5027
15719SOL    HW248599   5.580   6.685  12.286  0.0165  1.0735  0.4994
15720SOL     OW48600   5.347   3.022   0.149 -0.3120 -0.1003  0.2514
15720SOL    HW148601   5.267   2.979   0.120 -0.1720  0.1790 -0.5751
15720SOL    HW248602   5.380   2.966   0.219 -1.4444  0.0040  0.8910
15721SOL     OW48603   7.501   3.206   0.960  0.3671  0.0190 -0.7173
15721SOL    HW148604   7.563   3.259   1.010  1.0966 -2.0406  0.6973
15721SOL    HW248605   7.474   3.263   0.888  0.6310  2.4896  1.0007
15722SOL     OW48606   3.888   4.312  11.492 -0.4891 -0.2132 -0.0717
15722SOL    HW148607   3.810   4.361  11.517 -0.3785 -0.6103  1.1557
15722SOL    HW248608   3.856   4.237  11.443 -1.3413 -2.4281  3.4773
15723SOL     OW48609   4.849   3.183   0.579 -0.0861 -0.6491  0.1111
15723SOL    HW148610   4.919   3.248   0.570  0.7627 -1.6572 -0.9384
15723SOL    HW248611   4.833   3.179   0.674  1.0767 -0.1680  0.3491
15724SOL     OW48612   4.391   7.138  10.230 -0.1093  0.5700  0.5737
15724SOL    HW148613   4.345   7.079  10.290 -2.4444  0.1877 -1.4252
15724SOL    HW248614   4.432   7.080  10.165  0.1544  1.0505  0.3002
15725SOL     OW48615   5.441   6.021   0.002  0.0706 -0.2270 -0.0098
15725SOL    HW148616   5.447   5.970   0.083  3.9142 -0.2845 -0.1313
15725SOL    HW248617   5.446   5.956  -0.068 -0.8814 -0.0196 -0.2846
15726SOL     OW48618   6.365   4.077  11.839  0.4397  0.0427  0.3470
15726SOL    HW148619   6.372   3.984  11.818 -0.0707  0.3572 -1.3489
15726SOL    HW248620   6.313   4.079  11.920  2.9585 -1.2427  2.1364
15727SOL     OW48621   3.801   4.971   1.881 -0.0163  0.8842  0.6005
15727SOL    HW148622   3.859   5.048   1.880 -2.0372  2.4961 -0.0704
15727SOL    HW248623   3.737   4.991   1.950  0.2878 -0.9550  1.4831
15728SOL     OW48624   4.926   4.235  12.154 -0.0520 -0.1270 -0.1725
15728SOL    HW148625   4.901   4.269  12.240  0.1056  0.5606 -0.3976
15728SOL    HW248626   4.850   4.185  12.125 -0.1633 -0.2386  0.3003
15729SOL     OW48627   5.003   5.109  11.775 -0.1485  0.1202  0.1005
15729SOL    HW148628   4.975   5.112  11.683 -0.2105 -1.0710  0.0626
15729SOL    HW248629   4.929   5.071  11.821  0.1404  0.0862  0.5418
15730SOL     OW48630   4.890   2.964  12.336  0.7683  0.1997 -0.0237
15730SOL    HW148631   4.854   3.027  12.273 -0.0063 -1.9530 -1.8561
15730SOL    HW248632   4.814   2.933  12.385  0.6808 -1.2747 -1.0274
15731SOL     OW48633   3.899   2.793  11.911 -0.0737  1.1358  0.0791
15731SOL    HW148634   3.892   2.734  11.836  3.4196  1.3694 -0.5689
15731SOL    HW248635   3.867   2.877  11.878 -0.5143  0.7465 -0.5010
15732SOL     OW48636   3.691   4.059   0.201  0.4411 -0.7093 -0.2333
15732SOL    HW148637   3.672   3.965   0.195 -0.1924 -0.5568 -0.7247
15732SOL    HW248638   3.737   4.079   0.119  0.7381 -0.6190 -0.0490
15733SOL     OW48639   3.612   2.682  11.924  0.1881  0.1336  0.3406
15733SOL    HW148640   3.660   2.763  11.935  1.8147 -0.8046  0.4035
15733SOL    HW248641   3.622   2.660  11.831  2.3799 -1.5217  0.8987
15734SOL     OW48642   3.827   3.684   0.982  0.2829 -0.0750  0.3945
15734SOL    HW148643   3.781   3.751   1.033 -1.7405  0.2104 -1.6108
15734SOL    HW248644   3.823   3.606   1.036 -1.5240  0.2777  0.8573
15735SOL     OW48645   5.190   4.874   0.102 -0.5524  0.1607 -0.0902
15735SOL    HW148646   5.178   4.784   0.070 -0.8213 -0.4104  1.5346
15735SOL    HW248647   5.101   4.908   0.113 -0.4603  0.9575 -1.4622
15736SOL     OW48648   4.549   4.436   0.168 -0.3854  0.2997  0.0072
15736SOL    HW148649   4.474   4.472   0.214 -1.1480 -0.1828 -0.8158
15736SOL    HW248650   4.578   4.507   0.110 -0.5877  0.2942 -0.1031
15737SOL     OW48651   4.190   5.366  11.867 -0.1302  0.4122 -0.0449
15737SOL    HW148652   4.197   5.324  11.953 -2.0381  1.4985  0.6973
15737SOL    HW248653   4.278   5.398  11.849  0.0678  1.2432  2.0989
15738SOL     OW48654   3.280   3.491  10.410 -0.0429  0.3281  0.0158
15738SOL    HW148655   3.286   3.447  10.326  1.6457 -0.9524  0.7317
15738SOL    HW248656   3.313   3.580  10.394 -2.9605  1.2891 -1.3299
15739SOL     OW48657   5.889   4.295   0.664 -0.1873 -0.3911 -0.1761
15739SOL    HW148658   5.978   4.327   0.651 -0.5444  0.7243  0.0720
15739SOL    HW248659   5.878   4.227   0.597  0.7398 -0.3314 -0.3977
15740SOL     OW48660   5.180   3.918   0.656 -0.2917  0.4272  0.1020
15740SOL    HW148661   5.196   4.004   0.618 -0.0733  0.4160  0.1679
15740SOL    HW248662   5.141   3.936   0.742  0.0768  0.4662  0.2626
15741SOL     OW48663   3.850   3.510  11.697  0.3104 -0.8648 -0.1896
15741SOL    HW148664   3.786   3.579  11.714  1.2826  0.1378 -0.4841
15741SOL    HW248665   3.814   3.463  11.621 -0.0131 -0.2360 -0.4384
15742SOL     OW48666   4.413   2.800  12.302 -0.2876 -0.2895  0.4636
15742SOL    HW148667   4.471   2.747  12.247  1.2631  0.5460  1.2110
15742SOL    HW248668   4.351   2.738  12.339  0.6167 -1.3650  0.2358
15743SOL     OW48669   4.057   3.639  12.369  0.6738 -0.0596 -0.2697
15743SOL    HW148670   3.964   3.619  12.382  0.7945  1.0744  3.5439
15743SOL    HW248671   4.102   3.555  12.379  0.2374 -0.1466  1.1336
15744SOL     OW48672   3.061   5.086  12.177 -0.5739  0.3539 -0.0497
15744SOL    HW148673   3.002   5.158  12.202  0.1989  0.9645  0.0735
15744SOL    HW248674   3.079   5.102  12.084 -2.0581 -0.9121 -0.6055
15745SOL     OW48675   5.670   4.465  12.261  0.2379  0.0357  0.0013
15745SOL    HW148676   5.726   4.407  12.210  0.1011 -0.6616  0.6205
15745SOL    HW248677   5.595   4.411  12.284 -1.0709  1.1654 -1.4323
15746SOL     OW48678   5.103   4.899  12.267 -0.3873 -0.0933  0.6096
15746SOL    HW148679   5.143   4.842  12.202 -0.3396  2.1018 -1.3987
15746SOL    HW248680   5.170   4.910  12.334 -0.0971 -1.6538  0.6212
15747SOL     OW48681   3.201   4.851   0.820  0.1411 -0.0033 -0.2478
15747SOL    HW148682   3.130   4.888   0.871 -1.3405 -0.6026 -1.7611
15747SOL    HW248683   3.241   4.786   0.877 -2.0564 -1.3314 -0.0832
15748SOL     OW48684   4.155   1.975  11.919 -0.0088  0.5919 -0.4324
15748SOL    HW148685   4.068   1.965  11.883  0.2512  0.1281 -0.9430
15748SOL    HW248686   4.211   1.991  11.843  0.7165 -1.4841 -0.3971
15749SOL     OW48687   4.717   6.566   0.619  0.0996  0.0600  0.2442
15749SOL    HW148688   4.786   6.630   0.628 -0.8418  0.9719  1.3902
15749SOL    HW248689   4.716   6.543   0.527  0.7385  1.3814 -0.1090
15750SOL     OW48690   4.264   3.798   0.050 -0.0347  0.6115 -0.0808
15750SOL    HW148691   4.243   3.841  -0.033 -0.5225  1.1873  0.3427
15750SOL    HW248692   4.256   3.704   0.030  0.7947  0.7029 -0.9338
15751SOL     OW48693   5.565   6.440   0.400  0.4552 -0.0681  0.1797
15751SOL    HW148694   5.591   6.522   0.442  2.4625  0.0959 -1.2019
15751SOL    HW248695   5.547   6.464   0.309 -1.7927 -0.7369  0.3871
15752SOL     OW48696   3.838   4.317  12.317 -0.0739  0.2979  0.2128
15752SOL    HW148697   3.808   4.388  12.260  0.1599  0.1100 -0.1511
15752SOL    HW248698   3.932   4.331  12.325  0.0113 -0.0979 -0.0474
15753SOL     OW48699   4.257   4.164  10.430  0.5111  0.5617  0.0670
15753SOL    HW148700   4.219   4.134  10.348  0.4474 -1.2965  0.7398
15753SOL    HW248701   4.328   4.102  10.449  1.9316  2.1923  0.3737
15754SOL     OW48702   5.435   6.093  10.865  0.2981  0.1606  0.1613
15754SOL    HW148703   5.362   6.113  10.924 -1.1941 -0.3843 -1.4387
15754SOL    HW248704   5.421   6.003  10.838  1.1397  0.2913 -0.7875
15755SOL     OW48705   5.936   5.716   1.508  0.7526 -0.5529  0.3048
15755SOL    HW148706   6.031   5.725   1.509  0.9178 -0.5385 -2.9269
15755SOL    HW248707   5.919   5.655   1.436 -1.6879 -0.1470  0.4600
15756SOL     OW48708   5.293   3.880  11.018  0.3015  0.1265  0.1777
15756SOL    HW148709   5.329   3.794  11.041 -0.8542 -0.2156  0.7782
15756SOL    HW248710   5.367   3.928  10.981  0.7590 -1.4316 -1.0099
15757SOL     OW48711   4.233   5.200  12.086  0.2480 -0.3229  0.1372
15757SOL    HW148712   4.186   5.119  12.103 -0.2657  0.1194  0.8364
15757SOL    HW248713   4.235   5.246  12.170  1.7184 -0.2220  0.0730
15758SOL     OW48714   6.697   5.155  12.167  0.0557 -0.4235  0.6211
15758SOL    HW148715   6.760   5.083  12.163 -0.8865 -1.2411  0.2926
15758SOL    HW248716   6.660   5.160  12.079  1.2722  1.5600  0.1415
15759SOL     OW48717   6.119   5.333  11.720  0.5924 -0.0225 -0.4884
15759SOL    HW148718   6.069   5.372  11.649 -1.2066 -1.6783 -0.2273
15759SOL    HW248719   6.149   5.407  11.773  0.3229  1.1315 -1.8883
15760SOL     OW48720   4.483   3.246  12.248 -0.8289 -0.3086  0.5154
15760SOL    HW148721   4.507   3.251  12.341  1.7204 -1.6545  0.0395
15760SOL    HW248722   4.500   3.334  12.215  1.9619 -0.7043  0.6421
15761SOL     OW48723   5.284   7.089   0.858  0.2001  0.2756 -0.2695
15761SOL    HW148724   5.261   7.121   0.770  1.5228  0.6906 -0.4778
15761SOL    HW248725   5.371   7.125   0.875  0.0250  0.0741  1.1622
15762SOL     OW48726   4.715   3.518  11.205  0.3298 -0.5916 -0.0259
15762SOL    HW148727   4.645   3.536  11.141  1.1745  0.2850 -0.7319
15762SOL    HW248728   4.680   3.551  11.288 -0.0567 -0.0419 -0.3961
15763SOL     OW48729   4.117   3.602  10.443 -0.1999  0.5470  0.6805
15763SOL    HW148730   4.048   3.578  10.382  0.3148  1.8928 -0.4970
15763SOL    HW248731   4.121   3.698  10.439  0.4226  0.6201  2.2008
15764SOL     OW48732   6.315   3.584   0.916  0.0586  0.0153 -0.2250
15764SOL    HW148733   6.284   3.643   0.984  0.7850 -0.7139  0.7643
15764SOL    HW248734   6.239   3.574   0.857 -0.4259  1.0206  0.2043
15765SOL     OW48735   4.492   2.953   0.256  0.5957 -0.3919 -0.3966
15765SOL    HW148736   4.565   2.948   0.318 -0.9281 -0.5527  1.4953
15765SOL    HW248737   4.489   3.045   0.230  2.1135 -0.5907 -1.3589
15766SOL     OW48738   3.527   5.559  12.288  0.4394  0.4178 -0.0862
15766SOL    HW148739   3.619   5.533  12.284  0.1130 -1.1913  1.6200
15766SOL    HW248740   3.479   5.483  12.255 -0.2684  2.0562 -3.1648
15767SOL     OW48741   7.034   3.765  11.670  0.3255  0.4616  0.4411
15767SOL    HW148742   7.024   3.853  11.633  2.2315  0.9577  1.0042
15767SOL    HW248743   7.061   3.711  11.596  1.3882  0.8580  0.5187
15768SOL     OW48744   4.924   2.737  12.179  0.0355 -0.2973  0.2948
15768SOL    HW148745   4.843   2.735  12.127  0.6141 -1.9283 -0.5933
15768SOL    HW248746   4.907   2.805  12.245 -1.7072  0.0315 -0.4121
15769SOL     OW48747   4.616   5.673   9.392 -0.3128 -0.3193  0.0831
15769SOL    HW148748   4.594   5.712   9.476 -1.3737 -0.9352  0.1027
15769SOL    HW248749   4.712   5.683   9.386 -0.3347  0.6239  0.8937
15770SOL     OW48750   5.918   2.612  11.881 -0.3444  0.1084  0.2965
15770SOL    HW148751   5.899   2.533  11.930  2.8054  0.6206  2.6528
15770SOL    HW248752   5.888   2.684  11.936 -1.4079  0.6599 -0.9343
15771SOL     OW48753   4.854   3.543  11.980 -0.2709  0.5428 -0.3240
15771SOL    HW148754   4.937   3.577  11.948  0.2446  1.1677  1.5591
15771SOL    HW248755   4.844   3.581  12.068 -2.1814 -0.1082 -0.2103
15772SOL     OW48756   2.150   3.938  10.456  0.3650 -0.1259 -0.5980
15772SOL    HW148757   2.180   3.967  10.542  0.7450  0.5652 -0.9589
15772SOL    HW248758   2.109   4.015  10.416 -1.4339 -0.8944 -0.3482
15773SOL     OW48759   3.450   4.214   0.704  0.4041 -0.1532  0.7073
15773SOL    HW148760   3.395   4.286   0.734  0.2612 -0.2518  0.6868
15773SOL    HW248761   3.410   4.187   0.621 -0.4767 -1.2696  1.4558
15774SOL     OW48762   4.667   4.573  10.801  0.6114 -0.1425 -0.2597
15774SOL    HW148763   4.682   4.538  10.889 -0.5601 -2.3191 -0.8742
15774SOL    HW248764   4.739   4.539  10.749  0.3438 -0.3189 -0.5182
15775SOL     OW48765   3.944   5.425   0.083 -0.2341  0.1013  0.1767
15775SOL    HW148766   3.961   5.333   0.065  1.2519  0.2603  0.6144
15775SOL    HW248767   4.030   5.467   0.075 -0.6973  1.2563  1.0427
15776SOL     OW48768   5.923   4.132   1.404 -0.2790 -0.1424 -0.1276
15776SOL    HW148769   5.850   4.188   1.376 -1.1219 -1.3628 -0.4568
15776SOL    HW248770   5.919   4.134   1.500  1.6059  2.7408  0.0253
15777SOL     OW48771   3.407   2.865  10.457  0.0753 -0.4225 -0.0464
15777SOL    HW148772   3.364   2.838  10.375  1.9662 -0.4268 -1.0870
15777SOL    HW248773   3.368   2.950  10.478 -0.3788 -0.3846 -0.9898
15778SOL     OW48774   1.456   4.234  10.846 -0.4179 -0.1221  0.1177
15778SOL    HW148775   1.539   4.280  10.836 -0.6977  0.3118 -0.2412
15778SOL    HW248776   1.428   4.214  10.757 -1.6915  1.5380  0.0998
15779SOL     OW48777   5.626   4.271   1.672  0.1120 -0.2184 -0.5975
15779SOL    HW148778   5.615   4.186   1.629  1.4397 -1.4182  1.2962
15779SOL    HW248779   5.568   4.267   1.748 -1.2014  1.3514 -1.4404
15780SOL     OW48780   4.666   4.774  11.981 -0.2375 -0.3038  0.3063
15780SOL    HW148781   4.616   4.814  12.053 -0.0785 -1.9872  1.3882
15780SOL    HW248782   4.606   4.709  11.943 -0.8172  1.4247 -2.0127
15781SOL     OW48783   4.419   3.498   0.867  1.1863  0.4300 -0.1850
15781SOL    HW148784   4.345   3.436   0.866  0.9591  0.6724  0.9428
15781SOL    HW248785   4.495   3.443   0.881  1.5254 -0.0691 -3.1578
15782SOL     OW48786   4.420   4.191  12.469  1.0368 -0.6540  0.5222
15782SOL    HW148787   4.411   4.266  12.528  0.4373  0.4951 -0.9678
15782SOL    HW248788   4.506   4.203  12.428  0.6131 -0.3372 -0.2888
15783SOL     OW48789   3.861   2.919  11.383  0.2423 -0.3454 -0.2382
15783SOL    HW148790   3.874   2.997  11.329 -1.9608  0.0999 -0.2347
15783SOL    HW248791   3.790   2.944  11.444  0.2756 -1.9762  0.5207
15784SOL     OW48792   0.008   6.867   2.027  0.3150  0.1618 -0.2810
15784SOL    HW148793  -0.048   6.944   2.021  1.7312  1.2295 -0.2961
15784SOL    HW248794   0.014   6.849   2.121  0.2580  0.2829 -0.2543
15785SOL     OW48795   3.485   3.900  10.935  0.3479 -0.7348 -0.1679
15785SOL    HW148796   3.422   3.932  11.000  0.2946 -0.8277 -0.1734
15785SOL    HW248797   3.537   3.977  10.912  0.6015 -0.7821  0.2487
15786SOL     OW48798   5.307   3.541   0.216  0.0381 -0.1032  0.1341
15786SOL    HW148799   5.301   3.635   0.232 -2.0900  0.0137 -0.9034
15786SOL    HW248800   5.246   3.525   0.144 -0.5129 -2.4390  1.0074
15787SOL     OW48801   4.999   4.917  11.301 -0.3432  0.4669 -0.5768
15787SOL    HW148802   5.046   4.841  11.336 -0.8355  0.7484  0.7682
15787SOL    HW248803   4.981   4.894  11.210  2.2629  0.3000 -1.1331
15788SOL     OW48804   6.495   5.782  11.470  0.0986  0.3158 -0.2528
15788SOL    HW148805   6.535   5.755  11.388 -1.3070 -0.4812 -0.7082
15788SOL    HW248806   6.511   5.876  11.475 -0.1156  0.4493 -1.6397
15789SOL     OW48807   3.858   5.296  11.168 -0.2301  0.7415 -0.8321
15789SOL    HW148808   3.803   5.218  11.178 -0.2871  0.8847  0.0817
15789SOL    HW248809   3.945   5.262  11.148 -0.8945  0.5395 -3.8415
15790SOL     OW48810   6.331   3.363  12.206 -0.1730  0.3416 -0.5818
15790SOL    HW148811   6.313   3.380  12.298  2.7050 -1.0935  0.3547
15790SOL    HW248812   6.374   3.444  12.175  0.3348  0.2293 -0.1848
15791SOL     OW48813   5.496   3.077  12.411  0.1596  0.1581  0.0020
15791SOL    HW148814   5.453   3.018  12.472  1.3711 -0.4345  0.3230
15791SOL    HW248815   5.427   3.136  12.381 -0.8388 -0.7196  0.5241
15792SOL     OW48816   7.954   4.782  12.361  0.1342  0.0879 -0.3520
15792SOL    HW148817   8.039   4.826  12.353  0.3470 -0.0360  1.0718
15792SOL    HW248818   7.968   4.695  12.324  0.5300  0.1891 -0.4412
15793SOL     OW48819   5.978   4.378  11.149  0.0280  0.6588  0.4186
15793SOL    HW148820   5.994   4.422  11.066 -0.0261  0.7764  0.4706
15793SOL    HW248821   5.931   4.298  11.126  0.8152  0.2326  0.2467
15794SOL     OW48822   3.789   4.867   0.419 -0.1948  0.4269  0.6801
15794SOL    HW148823   3.744   4.830   0.343 -0.2428  2.6427 -0.4620
15794SOL    HW248824   3.829   4.792   0.462 -3.0267 -1.3580  0.4423
15795SOL     OW48825   4.031   4.018  12.075  0.1364  0.4771  0.1630
15795SOL    HW148826   4.064   4.106  12.054 -0.0535  0.4011 -0.4545
15795SOL    HW248827   4.028   3.972  11.991  4.0593 -1.4958  0.8572
15796SOL     OW48828   2.303   5.005  11.498 -0.1715 -0.2827 -0.2929
15796SOL    HW148829   2.321   5.045  11.583  0.2826 -0.7872 -0.1393
15796SOL    HW248830   2.228   4.948  11.513  0.2653 -0.8197 -0.0707
15797SOL     OW48831   5.653   4.789  11.623  0.1405  0.1429 -0.0847
15797SOL    HW148832   5.630   4.791  11.530 -0.1235  0.8560 -0.0172
15797SOL    HW248833   5.588   4.846  11.664 -0.6429 -1.3094  0.7528
15798SOL     OW48834   3.994   4.640  11.161  0.2634  0.3253 -0.3091
15798SOL    HW148835   3.901   4.659  11.146 -0.2351 -2.2233 -0.8555
15798SOL    HW248836   4.037   4.668  11.080 -0.4863 -1.0375 -1.2240
15799SOL     OW48837   3.914   5.215   0.966 -0.2449  0.3663 -0.0084
15799SOL    HW148838   3.978   5.154   0.928  0.6920  2.0646 -1.2650
15799SOL    HW248839   3.831   5.167   0.964  0.2958 -0.5669 -1.7808
15800SOL     OW48840   3.370   5.580   1.067 -0.2773 -0.0371 -0.3192
15800SOL    HW148841   3.363   5.642   0.995 -0.7071  0.1662 -0.1064
15800SOL    HW248842   3.301   5.516   1.050 -1.4460  0.8765  0.7361
15801SOL     OW48843   3.186   6.295   2.184  0.7797  0.2368  0.2955
15801SOL    HW148844   3.131   6.303   2.107 -1.2103  0.6287  1.6925
15801SOL    HW248845   3.215   6.385   2.203 -1.4623  0.7345  1.8266
15802SOL     OW48846   6.816   7.683   0.216  1.0400  0.0021 -0.0616
15802SOL    HW148847   6.805   7.640   0.301  2.0708  1.5472  0.9219
15802SOL    HW248848   6.751   7.642   0.159  0.4063 -1.1663  1.4419
15803SOL     OW48849   2.748   6.420  11.672 -0.3398 -0.0556 -0.0612
15803SOL    HW148850   2.812   6.414  11.744 -0.4246 -0.5112 -0.0240
15803SOL    HW248851   2.684   6.484  11.703  1.3659  2.2917 -1.0839
15804SOL     OW48852   5.834   7.417  11.461  0.3393  0.2196 -0.1992
15804SOL    HW148853   5.799   7.421  11.372 -2.5786 -0.6820  0.7912
15804SOL    HW248854   5.759   7.435  11.517  0.4584 -4.9887  2.2331
15805SOL     OW48855   3.087   6.826   3.034  0.0349  0.1939 -0.1847
15805SOL    HW148856   3.120   6.912   3.007  2.0688 -0.7659 -1.0021
15805SOL    HW248857   3.029   6.845   3.108  0.3091  2.2670 -0.4221
15806SOL     OW48858   4.866   6.211   0.987 -0.3360 -0.0680  0.2502
15806SOL    HW148859   4.958   6.225   1.009 -0.5259 -0.4812  1.3570
15806SOL    HW248860   4.851   6.268   0.912  1.2808 -1.3070 -1.1082
15807SOL     OW48861   2.974   7.831  12.487 -0.1839 -0.0376  0.4614
15807SOL    HW148862   3.051   7.801  12.536  0.4722 -0.2708 -0.6779
15807SOL    HW248863   2.924   7.751  12.471  0.2924 -0.1699 -0.4083
15808SOL     OW48864   5.015   5.063   2.524 -0.3052  0.1320 -0.0622
15808SOL    HW148865   5.010   5.158   2.537 -1.0155  0.1731 -0.5719
15808SOL    HW248866   4.962   5.026   2.594 -2.8042  0.2835 -1.7517
15809SOL     OW48867   4.823   6.592   1.753  0.2814  0.2446 -0.3653
15809SOL    HW148868   4.887   6.522   1.766  0.6276  0.5329 -0.4936
15809SOL    HW248869   4.757   6.555   1.695 -0.4004 -0.5154  0.8425
15810SOL     OW48870   3.834   6.141   0.845  0.6583 -0.6709  0.3367
15810SOL    HW148871   3.867   6.179   0.764 -1.1113  1.7788  0.6586
15810SOL    HW248872   3.857   6.204   0.913  0.1723 -1.5999  1.4131
15811SOL     OW48873   4.373   5.142   1.666 -0.1928 -0.6820 -0.0274
15811SOL    HW148874   4.342   5.079   1.601 -0.9411 -1.7109  1.2816
15811SOL    HW248875   4.431   5.092   1.723 -0.4886 -0.1140  0.7950
15812SOL     OW48876   4.908   4.766  12.405 -0.3881  0.3173  0.5921
15812SOL    HW148877   4.999   4.798  12.412  0.4739 -1.5468 -1.0615
15812SOL    HW248878   4.854   4.844  12.420  1.5006  1.7121  0.5399
15813SOL     OW48879   4.389   6.206   2.266 -0.2040 -0.3837 -0.0598
15813SOL    HW148880   4.349   6.287   2.298  0.3108 -0.3434  0.5002
15813SOL    HW248881   4.349   6.137   2.319 -0.3674 -0.4560 -0.2783
15814SOL     OW48882   7.152   6.528   1.032 -0.1650 -0.1270 -0.3564
15814SOL    HW148883   7.206   6.481   1.096 -0.6095  0.2709  0.3300
15814SOL    HW248884   7.215   6.574   0.976  0.2842 -1.6334 -1.1398
15815SOL     OW48885   3.322   7.547   1.853 -0.0455 -0.6666  0.0340
15815SOL    HW148886   3.340   7.632   1.893 -1.8437  0.4236 -1.3049
15815SOL    HW248887   3.233   7.555   1.818  0.2159 -2.6571 -1.2767
15816SOL     OW48888   3.267   6.839   2.532  0.5934  0.1647  0.1148
15816SOL    HW148889   3.339   6.786   2.500  0.3791  0.0099 -0.1098
15816SOL    HW248890   3.241   6.893   2.457  0.3119  0.0390  0.1184
15817SOL     OW48891   4.194   6.212   0.712 -0.2984  0.0928  0.5958
15817SOL    HW148892   4.164   6.179   0.797 -1.0074 -0.6365  0.0761
15817SOL    HW248893   4.264   6.152   0.686 -0.7059 -0.2516  0.2562
15818SOL     OW48894   4.128   7.082  11.320  0.0278 -0.0837  0.2325
15818SOL    HW148895   4.146   6.998  11.280 -2.0365 -1.7168  2.4535
15818SOL    HW248896   4.207   7.103  11.370  0.7896 -0.3575 -0.8459
15819SOL     OW48897   5.117   6.718   0.097 -0.3667 -0.5199  0.0027
15819SOL    HW148898   5.208   6.746   0.100 -0.1475 -1.1788 -0.2855
15819SOL    HW248899   5.096   6.715   0.003 -0.9298  0.3800  0.0856
15820SOL     OW48900   2.348   5.921   1.320 -0.2258 -0.4860  0.0620
15820SOL    HW148901   2.336   5.986   1.251 -1.5645 -1.2069 -0.4345
15820SOL    HW248902   2.360   5.973   1.400  1.0879  0.3554 -0.6519
15821SOL     OW48903   5.629   7.257   0.537  0.5651  0.3545 -0.4823
15821SOL    HW148904   5.645   7.348   0.511  0.2147  0.5293 -0.0988
15821SOL    HW248905   5.653   7.255   0.630 -0.1105  0.2272 -0.3110
15822SOL     OW48906   2.921   6.590   2.138  0.2132  0.1198 -0.6839
15822SOL    HW148907   2.828   6.595   2.116  0.2542  1.1988 -0.6685
15822SOL    HW248908   2.928   6.636   2.221  0.6984 -0.3560 -0.4539
15823SOL     OW48909   4.384   7.335   0.323 -0.2597  0.0650  0.0646
15823SOL    HW148910   4.333   7.267   0.368 -0.4081  0.2132  0.1186
15823SOL    HW248911   4.415   7.292   0.243 -0.4630 -0.0279  0.0346
15824SOL     OW48912   5.748   6.968  11.798  0.1170  0.1048 -0.2496
15824SOL    HW148913   5.772   7.037  11.859  0.8478 -1.4481  1.3035
15824SOL    HW248914   5.742   7.012  11.713  1.3191  1.9202  0.5415
15825SOL     OW48915   3.974   6.717   2.659 -0.2520 -0.0893 -0.5998
15825SOL    HW148916   4.064   6.686   2.659 -0.1606  0.1461  0.4223
15825SOL    HW248917   3.934   6.677   2.736 -1.8670 -2.4672 -2.5404
15826SOL     OW48918   5.365   7.554   0.512 -0.0109  0.2849 -0.0690
15826SOL    HW148919   5.345   7.460   0.518  0.3880  0.2851  2.5687
15826SOL    HW248920   5.430   7.560   0.442  0.3219 -1.4924  0.0330
15827SOL     OW48921   3.899   6.930   2.246  0.3077 -0.3699  0.1375
15827SOL    HW148922   3.918   7.024   2.246  0.1623 -0.3167 -1.3397
15827SOL    HW248923   3.986   6.889   2.251  0.5179 -0.1334 -1.1758
15828SOL     OW48924   5.012   5.463  12.265 -0.1764  0.0753 -0.0551
15828SOL    HW148925   4.996   5.459  12.170 -2.0118  1.1554  0.1597
15828SOL    HW248926   4.955   5.395  12.302  1.6687 -1.4111  0.2187
15829SOL     OW48927   3.345   7.283   1.982  0.0862  0.1224 -0.0984
15829SOL    HW148928   3.436   7.252   1.975  0.1369 -0.1339  1.4575
15829SOL    HW248929   3.348   7.371   1.945  0.8469 -0.0705 -0.5458
15830SOL     OW48930   5.866   6.626   0.046  0.0236 -0.3010 -0.1073
15830SOL    HW148931   5.923   6.656  -0.024 -1.3824 -0.7563 -1.4895
15830SOL    HW248932   5.887   6.683   0.120  1.9815 -0.2258 -0.6713
15831SOL     OW48933   3.892   7.737   1.229  0.0408 -0.3775  0.3172
15831SOL    HW148934   3.816   7.684   1.254 -0.6853  0.5742  0.1853
15831SOL    HW248935   3.903   7.800   1.300  0.9468 -0.7428  0.5131
15832SOL     OW48936   4.553   5.220   0.470 -0.0047  0.2987 -0.1059
15832SOL    HW148937   4.535   5.207   0.563 -1.0534  1.7013 -0.0920
15832SOL    HW248938   4.589   5.308   0.464 -1.2895  0.7931 -1.1590
15833SOL     OW48939   4.552   7.640   1.584 -0.1543 -0.5429 -0.5342
15833SOL    HW148940   4.486   7.685   1.637  0.2131 -0.0339 -0.5048
15833SOL    HW248941   4.506   7.615   1.504 -0.6080 -0.9655 -0.1516
15834SOL     OW48942   4.691   1.571   1.489  0.1966 -0.0861  0.1936
15834SOL    HW148943   4.693   1.511   1.563  1.5603 -0.1189  0.1701
15834SOL    HW248944   4.615   1.627   1.505  0.9075  0.4322  2.0619
15835SOL     OW48945   5.058   6.074   2.272  0.4424 -0.2444  0.3731
15835SOL    HW148946   5.080   6.166   2.260  1.3072 -0.5701 -0.6863
15835SOL    HW248947   5.070   6.034   2.185 -0.9946 -1.1453  0.5543
15836SOL     OW48948   6.744   6.299   0.912 -0.4710 -0.5970  0.0862
15836SOL    HW148949   6.810   6.366   0.932 -0.9127 -0.4481  1.1520
15836SOL    HW248950   6.724   6.312   0.820  0.5260 -0.2308 -0.0966
15837SOL     OW48951   5.443   0.021   0.672 -0.1856  0.3936  0.2366
15837SOL    HW148952   5.394   0.103   0.673 -1.4520 -0.2900 -1.2027
15837SOL    HW248953   5.533   0.048   0.655 -0.6436  1.4825 -0.6606
15838SOL     OW48954   5.125   6.461   1.461  0.0601 -0.6471  0.2589
15838SOL    HW148955   5.145   6.369   1.476  1.7162 -0.1206  1.5643
15838SOL    HW248956   5.030   6.467   1.472  0.1073 -1.9406  1.6656
15839SOL     OW48957   4.860   6.398   1.461  0.2847 -0.2856 -0.7635
15839SOL    HW148958   4.820   6.339   1.525  0.3286  0.3367 -0.1525
15839SOL    HW248959   4.811   6.382   1.380 -0.8346  0.0585 -0.1770
15840SOL     OW48960   4.372   5.881   1.141 -0.2930  0.2495 -0.1292
15840SOL    HW148961   4.393   5.900   1.232 -0.3503 -0.8431  0.1223
15840SOL    HW248962   4.318   5.802   1.144  0.6670 -0.4827 -1.1755
15841SOL     OW48963   4.207   5.392   0.333  0.6174 -0.0858  0.0646
15841SOL    HW148964   4.208   5.460   0.265  0.8919  0.7575  0.8802
15841SOL    HW248965   4.147   5.325   0.299  2.5174 -0.8426 -2.0663
15842SOL     OW48966   4.330   4.596  11.609 -0.0386  0.2443  0.4242
15842SOL    HW148967   4.283   4.599  11.526 -3.2344 -1.0877  2.0011
15842SOL    HW248968   4.283   4.531  11.661  3.1065 -0.5385  2.6005
15843SOL     OW48969   6.037   5.977   0.698 -0.0796 -0.9368  0.9563
15843SOL    HW148970   5.959   6.032   0.687 -0.2449 -1.5473 -1.6812
15843SOL    HW248971   6.065   5.958   0.608  3.6343 -0.0702  1.7694
15844SOL     OW48972   3.820   6.758   1.711  0.7195  0.3855 -0.0559
15844SOL    HW148973   3.817   6.853   1.719  1.1046  0.3522  0.5628
15844SOL    HW248974   3.905   6.734   1.748 -0.3545 -0.3946  2.0535
15845SOL     OW48975   4.806   4.346  12.423 -0.3447 -0.1961 -0.3063
15845SOL    HW148976   4.843   4.343  12.511 -1.7160 -1.0611  0.2754
15845SOL    HW248977   4.784   4.255  12.403  1.5872 -0.3014 -2.3067
15846SOL     OW48978   6.779   0.402   1.852 -0.0300  0.1447 -0.6670
15846SOL    HW148979   6.746   0.314   1.834 -0.3927 -0.2013  1.5063
15846SOL    HW248980   6.703   0.459   1.838  0.0536  0.0739 -1.4936
15847SOL     OW48981   5.240   5.045   0.378 -0.1033  0.2761  0.2871
15847SOL    HW148982   5.173   5.003   0.434  0.2775  0.5800  0.9867
15847SOL    HW248983   5.192   5.113   0.332 -0.3033  0.4368  0.7197
15848SOL     OW48984   3.165   6.691  11.948 -0.0105 -0.2241 -0.2787
15848SOL    HW148985   3.198   6.751  12.015 -0.3290 -0.7590  0.3568
15848SOL    HW248986   3.207   6.607  11.968  2.4726  0.3007 -2.6643
15849SOL     OW48987   4.290   6.480   0.765  0.0885 -0.0054  0.1617
15849SOL    HW148988   4.311   6.506   0.855 -0.8698 -1.6335  0.8930
15849SOL    HW248989   4.259   6.390   0.772 -0.6536  0.0525 -1.7237
15850SOL     OW48990   5.700   6.367   0.732  0.0642  0.2641  0.3280
15850SOL    HW148991   5.717   6.459   0.709  1.6283 -0.2584 -0.8075
15850SOL    HW248992   5.741   6.355   0.817  0.9719  0.3178 -0.0944
15851SOL     OW48993   3.865   6.964  11.986  0.1152  0.1775  0.2276
15851SOL    HW148994   3.821   6.879  11.993  0.9089 -0.3303 -0.6834
15851SOL    HW248995   3.898   6.981  12.075 -1.7044  0.4819  0.8845
15852SOL     OW48996   4.019   4.186   0.314  0.6216 -0.3101  0.6554
15852SOL    HW148997   4.113   4.200   0.310  0.6008 -0.3935 -0.6281
15852SOL    HW248998   4.009   4.093   0.335  0.8448 -0.4490  0.1753
15853SOL     OW48999   4.642   6.895   2.166  0.5247  0.5825 -0.1403
15853SOL    HW149000   4.637   6.844   2.247  0.9747  1.5685  0.5382
15853SOL    HW249001   4.713   6.854   2.116 -0.8636 -1.0842 -0.8320
15854SOL     OW49002   4.902   7.916   1.273 -0.8428  0.4448 -0.2335
15854SOL    HW149003   4.939   7.951   1.354 -1.3300  0.8864 -0.1968
15854SOL    HW249004   4.905   7.821   1.285 -0.5338  0.4951  0.1299
15855SOL     OW49005   5.736   7.787  11.176  0.0695  0.3959 -0.3320
15855SOL    HW149006   5.744   7.783  11.272  2.1132 -1.0271 -0.4830
15855SOL    HW249007   5.688   7.708  11.153 -0.3295  0.6839 -0.4927
15856SOL     OW49008   5.567   4.959   2.211  0.0553  0.4299 -0.0058
15856SOL    HW149009   5.652   4.916   2.194 -0.6983 -1.2559  0.2608
15856SOL    HW249010   5.534   4.917   2.290 -0.4492  2.0214  0.6621
15857SOL     OW49011   4.795   6.683   1.453 -0.0570 -0.5316 -0.4739
15857SOL    HW149012   4.796   6.588   1.443 -1.8591 -0.4078 -2.5335
15857SOL    HW249013   4.847   6.699   1.532 -0.1004 -3.2372  0.2110
15858SOL     OW49014   5.716   7.908  11.714  0.2031 -0.2267  0.4338
15858SOL    HW149015   5.696   7.988  11.763  2.3265  0.5169  0.1846
15858SOL    HW249016   5.764   7.853  11.775 -0.6185 -1.0228  0.3804
15859SOL     OW49017   4.019   4.569   0.349 -0.2814 -0.1898  0.3775
15859SOL    HW149018   3.947   4.526   0.304  0.2808 -0.2911 -0.4439
15859SOL    HW249019   3.987   4.584   0.438 -0.9299 -1.1633  0.3113
15860SOL     OW49020   4.208   0.916   2.366 -0.2245 -0.4220  0.0183
15860SOL    HW149021   4.129   0.930   2.313 -0.1228  0.6884  0.1330
15860SOL    HW249022   4.178   0.860   2.438 -0.5196 -1.3723 -0.8345
15861SOL     OW49023   7.451   7.798   2.511 -0.1147 -0.5536  0.2420
15861SOL    HW149024   7.414   7.781   2.598  1.5559 -1.5815  0.7892
15861SOL    HW249025   7.476   7.711   2.479 -2.2662 -0.4278 -2.0455
15862SOL     OW49026   2.719   6.050   1.679  0.4920  0.1278  0.4855
15862SOL    HW149027   2.637   6.011   1.649  0.7710 -0.2363  0.1860
15862SOL    HW249028   2.781   6.034   1.608  0.4939  1.5506  0.1339
15863SOL     OW49029   5.692   6.164   0.116 -0.4412  0.1037 -1.0709
15863SOL    HW149030   5.615   6.127   0.071  0.2842 -0.6639 -1.7228
15863SOL    HW249031   5.696   6.255   0.086  0.0808 -0.4162 -2.6953
15864SOL     OW49032   4.716   5.492  10.221 -0.0924 -0.2197 -0.7193
15864SOL    HW149033   4.630   5.509  10.182  0.1658  0.5381 -0.9808
15864SOL    HW249034   4.699   5.486  10.315 -0.1240  2.5121 -0.4543
15865SOL     OW49035   3.745   5.830   1.210  0.4967  0.4020 -0.4218
15865SOL    HW149036   3.714   5.898   1.150 -0.8554  0.4613  0.2895
15865SOL    HW249037   3.699   5.750   1.182 -0.1372  0.4291  0.5040
15866SOL     OW49038   4.790   7.416   1.237 -0.6381  0.1976 -0.0461
15866SOL    HW149039   4.879   7.386   1.219 -0.5933  1.3848 -2.1781
15866SOL    HW249040   4.736   7.338   1.224  0.0997 -0.6504  1.7559
15867SOL     OW49041   4.774   5.997   0.192 -0.3481 -0.0276  0.1281
15867SOL    HW149042   4.846   5.964   0.246 -0.8752 -1.6107 -0.0668
15867SOL    HW249043   4.811   6.070   0.144  1.0392 -0.6133  0.2703
15868SOL     OW49044   5.196   7.213   0.285 -0.5297 -0.5043 -0.2282
15868SOL    HW149045   5.110   7.252   0.302 -0.2989 -0.4132  0.7881
15868SOL    HW249046   5.250   7.240   0.359  0.2069 -1.0713 -0.5437
15869SOL     OW49047   5.186   7.389   0.970  0.2371  0.1124 -0.0923
15869SOL    HW149048   5.224   7.301   0.970 -1.1469 -0.5116 -0.5153
15869SOL    HW249049   5.093   7.375   0.988 -0.1551  1.4221 -0.9751
15870SOL     OW49050   4.697   6.249  11.889 -0.3662 -0.1777  0.3104
15870SOL    HW149051   4.611   6.249  11.931 -1.4307  2.0944 -1.6665
15870SOL    HW249052   4.685   6.194  11.811 -0.7566  1.8519 -1.1414
15871SOL     OW49053   6.058   0.311  12.322 -0.0638 -0.0119  0.2328
15871SOL    HW149054   6.142   0.334  12.281 -0.3688 -0.1517 -0.4804
15871SOL    HW249055   6.066   0.218  12.344  0.7847  0.4562  2.1921
15872SOL     OW49056   3.366   4.710  11.163 -0.3641 -0.0562 -0.7770
15872SOL    HW149057   3.283   4.710  11.116 -1.1577 -0.6589  0.5596
15872SOL    HW249058   3.409   4.791  11.136 -2.0581  1.0380 -0.3658
15873SOL     OW49059   4.538   5.721  12.098  0.2577 -0.0865 -0.2034
15873SOL    HW149060   4.616   5.736  12.045  0.2430 -1.4118 -0.6283
15873SOL    HW249061   4.569   5.668  12.172 -0.0788  0.1477  0.1114
15874SOL     OW49062   4.629   6.642   0.036 -0.2182  0.2216  0.1931
15874SOL    HW149063   4.697   6.591  -0.007  0.7203  0.6582  1.1088
15874SOL    HW249064   4.595   6.700  -0.032 -1.0059 -1.2729 -0.7526
15875SOL     OW49065   5.377   7.399   1.306 -0.3360 -0.6930  0.2591
15875SOL    HW149066   5.403   7.427   1.394  0.7209  0.7068 -0.4422
15875SOL    HW249067   5.383   7.304   1.308  0.1797 -0.6536  1.5510
15876SOL     OW49068   4.143   6.857   2.225 -0.3338  0.0918  0.0279
15876SOL    HW149069   4.207   6.864   2.297  0.3964  0.1035 -0.6122
15876SOL    HW249070   4.176   6.917   2.158 -2.4759  2.2375  0.7311
15877SOL     OW49071   3.174   0.466   1.059 -0.6438  0.1199  0.1525
15877SOL    HW149072   3.112   0.450   1.130 -0.3618  0.3538  0.4569
15877SOL    HW249073   3.130   0.530   1.003 -1.2352 -0.7365 -0.3678
15878SOL     OW49074   3.779   3.955  12.215 -0.1908 -0.0107  0.1906
15878SOL    HW149075   3.744   4.025  12.158  0.2563 -0.7584 -1.0263
15878SOL    HW249076   3.859   3.926  12.171  0.8499  0.2372  1.8695
15879SOL     OW49077   3.243   6.564   2.381 -1.1436  0.1128 -0.2690
15879SOL    HW149078   3.193   6.642   2.357 -0.6808  0.3733 -0.4035
15879SOL    HW249079   3.186   6.516   2.441 -1.7802  0.1144 -0.8697
15880SOL     OW49080   3.952   6.130   2.511 -0.3227  0.1356  0.1810
15880SOL    HW149081   3.868   6.164   2.483 -2.1183 -1.7921  2.7541
15880SOL    HW249082   3.957   6.042   2.474  0.7832  0.3840 -0.3043
15881SOL     OW49083   2.695   6.397   1.115  0.6534 -0.0414  0.0559
15881SOL    HW149084   2.663   6.401   1.205  0.7239  0.6810  0.0551
15881SOL    HW249085   2.726   6.307   1.105 -2.6366 -1.2611 -0.3963
15882SOL     OW49086   5.094   4.704  11.463  0.1967  0.0330 -0.5819
15882SOL    HW149087   5.021   4.724  11.522  0.3559 -0.5243 -0.1854
15882SOL    HW249088   5.160   4.663  11.519  1.3085  1.5509 -0.7144
15883SOL     OW49089   5.949   7.616   1.019  0.8766 -0.3053 -0.1441
15883SOL    HW149090   5.854   7.614   1.012  0.9012 -0.9903 -0.3361
15883SOL    HW249091   5.967   7.599   1.111  0.8131  0.0207 -0.0688
15884SOL     OW49092   4.220   6.329   0.405 -0.0964  0.0922  0.5578
15884SOL    HW149093   4.204   6.423   0.412 -0.0634  0.0513  1.2245
15884SOL    HW249094   4.205   6.295   0.493 -1.0730 -0.6823  0.1179
15885SOL     OW49095   6.043   6.628  11.601  0.4644 -0.3390  0.2448
15885SOL    HW149096   6.085   6.588  11.525 -0.9837 -0.1679 -0.6722
15885SOL    HW249097   6.089   6.712  11.612  0.0770  0.0625 -1.0318
15886SOL     OW49098   4.452   7.506  12.461 -0.4571 -0.2146  0.3213
15886SOL    HW149099   4.450   7.505  12.365  2.6252 -0.4398  0.1474
15886SOL    HW249100   4.438   7.414  12.485  0.1731 -0.4040 -0.0050
15887SOL     OW49101   5.579   0.837  11.835 -0.4130 -0.4176  0.0077
15887SOL    HW149102   5.653   0.777  11.837  0.1606  0.2597 -0.1759
15887SOL    HW249103   5.562   0.859  11.926  2.0603  2.2875 -0.0277
15888SOL     OW49104   5.495   6.056  11.798  0.2208 -0.3283  0.4866
15888SOL    HW149105   5.418   6.011  11.762  0.2490 -1.1193  1.3736
15888SOL    HW249106   5.478   6.062  11.892  1.5321 -1.1416  0.8032
15889SOL     OW49107   4.654   4.463  11.069 -0.3826 -0.2829  0.2338
15889SOL    HW149108   4.716   4.410  11.118 -0.4075 -0.9627 -0.4653
15889SOL    HW249109   4.582   4.477  11.130  0.3613  0.3710  0.9959
15890SOL     OW49110   6.419   0.074  12.451  0.9274  0.2491 -0.1503
15890SOL    HW149111   6.501   0.055  12.405  1.7889  0.7681  1.1018
15890SOL    HW249112   6.386  -0.012  12.477  0.8801  0.0130 -0.9446
15891SOL     OW49113   3.502   6.525   2.034  0.1230 -0.0047 -0.0883
15891SOL    HW149114   3.417   6.538   2.077  0.6165  3.0428  0.1421
15891SOL    HW249115   3.486   6.547   1.943  0.8454  1.7476  0.1653
15892SOL     OW49116   5.455   0.517   0.691 -0.1688  0.5061 -0.1957
15892SOL    HW149117   5.396   0.532   0.617 -0.3197  0.5268 -0.0715
15892SOL    HW249118   5.540   0.551   0.661  0.5064 -1.9871 -1.4401
15893SOL     OW49119   4.235   7.358   1.788 -0.3444  0.5891  0.3210
15893SOL    HW149120   4.241   7.339   1.694  1.5822  2.3479  0.0028
15893SOL    HW249121   4.317   7.324   1.824 -1.1588 -0.2651  1.4341
15894SOL     OW49122   5.123   7.689   0.548 -0.0125  0.1091 -0.2472
15894SOL    HW149123   5.069   7.653   0.619 -0.2717  1.5724  0.3339
15894SOL    HW249124   5.204   7.639   0.551  0.4441  0.8798  1.8626
15895SOL     OW49125   4.829   6.220   0.028  0.3365  0.5818 -0.5083
15895SOL    HW149126   4.760   6.250  -0.030 -0.9487  0.0061  0.6546
15895SOL    HW249127   4.903   6.278   0.010 -2.0062  4.7493  1.7378
15896SOL     OW49128   4.614   7.189   1.187 -0.7461  0.4815 -0.1089
15896SOL    HW149129   4.595   7.111   1.135  0.2906  0.5223 -0.5851
15896SOL    HW249130   4.648   7.155   1.270  1.2131  0.3825 -0.8981
15897SOL     OW49131   4.339   7.295   0.842  0.0418 -0.4265 -0.1916
15897SOL    HW149132   4.403   7.310   0.911  2.3358 -1.0904 -2.0370
15897SOL    HW249133   4.376   7.223   0.790 -1.6203 -0.0493 -2.0415
15898SOL     OW49134   3.587   7.089   1.939 -0.0527  0.8126 -0.0713
15898SOL    HW149135   3.610   7.019   2.000 -0.5906  0.7704  0.0911
15898SOL    HW249136   3.506   7.059   1.898  0.2694  0.8743 -0.7558
15899SOL     OW49137   4.015   7.333  11.194  0.0639  0.0906 -0.2327
15899SOL    HW149138   4.079   7.347  11.124  0.5035 -0.0362  0.1351
15899SOL    HW249139   4.046   7.254  11.238 -1.6024 -1.3027 -1.4335
15900SOL     OW49140   4.333   6.737   2.518  0.1468  0.1921 -0.1241
15900SOL    HW149141   4.306   6.652   2.554  0.9057 -0.3910 -0.8754
15900SOL    HW249142   4.301   6.801   2.582 -0.6551 -0.6344  0.3384
15901SOL     OW49143   3.004   6.378   0.585 -0.5464  0.0562 -0.1331
15901SOL    HW149144   2.962   6.459   0.615 -1.0404 -0.3661  0.3322
15901SOL    HW249145   2.979   6.370   0.494  0.2900  0.9229 -0.4683
15902SOL     OW49146   2.406   5.754   0.754 -0.2605 -0.3214  0.4060
15902SOL    HW149147   2.388   5.661   0.742 -1.0200 -0.2285  0.7698
15902SOL    HW249148   2.499   5.764   0.733 -0.3031 -1.0681 -0.1611
15903SOL     OW49149   4.793   5.906   0.548  0.2687 -0.7441 -0.1213
15903SOL    HW149150   4.827   5.987   0.512 -1.2671  0.6031  1.2775
15903SOL    HW249151   4.821   5.905   0.639 -0.6571 -1.2074  0.1815
15904SOL     OW49152   5.690   0.440   1.827 -0.5528  0.3453  0.2362
15904SOL    HW149153   5.702   0.370   1.891  3.8733  1.8959  1.5311
15904SOL    HW249154   5.740   0.411   1.751 -2.7230  0.1378 -1.1964
15905SOL     OW49155   3.915   7.741  12.367 -0.3589 -0.0925 -0.9510
15905SOL    HW149156   4.009   7.736  12.351  0.0065 -2.0007  1.2580
15905SOL    HW249157   3.908   7.775  12.456 -1.7841  0.3145 -1.2011
15906SOL     OW49158   3.811   7.184   3.493 -0.0061 -0.3309  0.1621
15906SOL    HW149159   3.774   7.238   3.423 -1.5983 -2.0836 -0.4360
15906SOL    HW249160   3.838   7.247   3.559  0.6458  1.3239 -1.5915
15907SOL     OW49161   1.810   6.559   0.981  0.0953 -0.4096 -0.0354
15907SOL    HW149162   1.730   6.507   0.972 -0.3380  0.3582 -0.7777
15907SOL    HW249163   1.820   6.601   0.896  0.8452  0.1412  0.3208
15908SOL     OW49164   5.967   5.845   0.249 -0.2671 -0.1098 -0.0986
15908SOL    HW149165   5.897   5.815   0.308  0.7948 -1.1655  0.6745
15908SOL    HW249166   6.032   5.886   0.306  0.9276 -1.4292 -0.4456
15909SOL     OW49167   3.758   5.036   1.245  0.3376 -0.0369  0.1459
15909SOL    HW149168   3.715   4.976   1.184  0.4496 -0.8493  0.8532
15909SOL    HW249169   3.848   5.043   1.211 -0.1544  1.1879 -0.9822
15910SOL     OW49170   4.679   6.093   1.127  0.0669  0.0577 -0.0030
15910SOL    HW149171   4.761   6.123   1.087  0.9174 -1.7969  0.2403
15910SOL    HW249172   4.703   6.074   1.218 -0.1370 -2.1960 -0.3614
15911SOL     OW49173   3.230   5.421  12.059  0.0444 -0.2420 -0.1715
15911SOL    HW149174   3.241   5.327  12.048 -1.2952 -0.4865  0.3938
15911SOL    HW249175   3.168   5.446  11.991  0.4076  0.2366 -0.3297
15912SOL     OW49176   3.435   7.788   1.503 -0.4675  0.1912  0.2028
15912SOL    HW149177   3.458   7.775   1.595  1.8412  0.8466 -0.2237
15912SOL    HW249178   3.350   7.746   1.493 -0.1249 -1.1114  2.3116
15913SOL     OW49179   4.034   6.700   1.003  0.2185 -0.1439  0.4999
15913SOL    HW149180   4.070   6.624   1.049 -1.6530 -0.2381  1.9477
15913SOL    HW249181   4.109   6.738   0.958  1.5861 -1.7482  1.2836
15914SOL     OW49182   3.772   4.857  12.483  0.1203 -0.2431  0.6936
15914SOL    HW149183   3.858   4.889  12.455 -0.1097  0.7056  1.0379
15914SOL    HW249184   3.711   4.926  12.459 -0.5065 -0.7680  0.7523
15915SOL     OW49185   3.109   6.951   0.105 -0.0648  0.3387 -0.0853
15915SOL    HW149186   3.050   6.894   0.055 -1.5532  1.5164  0.2611
15915SOL    HW249187   3.083   6.936   0.196  2.5181 -1.6788  0.4427
15916SOL     OW49188   4.323   6.721   1.306 -0.1680 -0.5211 -0.0068
15916SOL    HW149189   4.372   6.680   1.378  1.8179  0.5382 -0.6864
15916SOL    HW249190   4.385   6.723   1.233 -0.3572  3.0015 -0.2288
15917SOL     OW49191   4.911   5.698   3.413 -0.4422  0.1427 -0.3138
15917SOL    HW149192   4.954   5.648   3.483  0.5006 -1.1962 -1.7717
15917SOL    HW249193   4.957   5.672   3.333 -0.3383  2.9184 -1.2673
15918SOL     OW49194   3.597   5.821   2.606 -0.0919  0.1570  0.0898
15918SOL    HW149195   3.566   5.732   2.621 -0.4056  0.1734 -0.4475
15918SOL    HW249196   3.693   5.813   2.601 -0.0850 -0.0718  0.5208
15919SOL     OW49197   5.950   4.995   1.004 -0.3729 -0.7538  0.4691
15919SOL    HW149198   6.045   4.990   1.013 -0.2962  0.7260  0.7038
15919SOL    HW249199   5.936   5.012   0.911 -0.4978 -2.3726  0.1673
15920SOL     OW49200   2.848   6.882  12.491  0.3657  0.0171 -0.0071
15920SOL    HW149201   2.843   6.803  12.437  0.1567 -1.1596  1.6702
15920SOL    HW249202   2.768   6.929  12.471 -1.0856 -1.7723  1.2373
15921SOL     OW49203   4.413   5.203   0.248 -0.3283  0.3150  0.2657
15921SOL    HW149204   4.355   5.280   0.248 -1.8002 -0.7328 -0.5762
15921SOL    HW249205   4.449   5.199   0.336 -1.3781  1.1360  0.7510
15922SOL     OW49206   6.190   0.836   1.152 -0.5513 -0.0824 -0.1645
15922SOL    HW149207   6.105   0.847   1.110 -0.2125  0.3130 -0.7725
15922SOL    HW249208   6.192   0.902   1.222 -0.7583 -0.1219 -0.1216
15923SOL     OW49209   3.186   6.945   2.249 -0.1679  0.1158 -0.6743
15923SOL    HW149210   3.125   6.917   2.181 -2.2849 -1.2072  1.5596
15923SOL    HW249211   3.157   7.033   2.273 -0.2165  0.1066 -0.6989
15924SOL     OW49212   6.067   6.292  10.339  0.7385 -0.2413 -0.7458
15924SOL    HW149213   6.009   6.216  10.336 -0.1800  0.4078 -0.0721
15924SOL    HW249214   6.095   6.297  10.431 -1.0253  1.5091 -0.2248
15925SOL     OW49215   3.968   7.357  12.035 -0.9087  0.2827  0.0811
15925SOL    HW149216   4.007   7.421  12.095 -1.4570 -0.5489  1.3714
15925SOL    HW249217   4.042   7.323  11.985 -0.6521  2.1957 -0.9487
15926SOL     OW49218   5.573   7.773   1.496  0.5653 -0.1186  0.3936
15926SOL    HW149219   5.625   7.813   1.427 -0.4845  0.4445 -0.1116
15926SOL    HW249220   5.547   7.847   1.552 -0.2450 -0.2782  0.2410
15927SOL     OW49221   3.289   7.068   0.317  0.3160  0.2021  0.0633
15927SOL    HW149222   3.287   7.087   0.224  0.2856  1.4181  0.3037
15927SOL    HW249223   3.356   7.127   0.352  1.6618 -1.5154  0.5433
15928SOL     OW49224   3.972   6.107   0.257 -0.1889  0.1352  0.2877
15928SOL    HW149225   3.954   6.037   0.321 -0.9702 -0.5290 -0.6330
15928SOL    HW249226   3.899   6.102   0.196 -0.5214  2.0969  0.4727
15929SOL     OW49227   5.442   5.658   2.484  0.0533  0.8427 -0.4498
15929SOL    HW149228   5.431   5.732   2.544  1.2686 -0.3447  1.3208
15929SOL    HW249229   5.534   5.660   2.459 -0.1055  0.4249 -1.1068
15930SOL     OW49230   4.083   6.808   1.386 -0.4616 -0.0503 -0.1422
15930SOL    HW149231   4.170   6.769   1.376 -0.3899  0.2375 -0.7340
15930SOL    HW249232   4.079   6.874   1.316 -0.9870  0.2453  0.1606
15931SOL     OW49233   3.209   7.929   0.736  0.1099 -0.1914  0.5736
15931SOL    HW149234   3.172   7.918   0.824  0.0160  1.4248  0.7648
15931SOL    HW249235   3.152   7.877   0.680 -2.4597  2.0266  0.8917
15932SOL     OW49236   3.766   7.484   0.896 -0.0502 -0.4921  0.2714
15932SOL    HW149237   3.795   7.464   0.985 -0.0139  1.1138  0.6691
15932SOL    HW249238   3.846   7.488   0.844  0.0340 -0.3467  0.4129
15933SOL     OW49239   3.934   7.078   1.983  0.1223 -0.0918 -0.0549
15933SOL    HW149240   3.861   7.021   2.008  0.4342 -0.1875  0.6570
15933SOL    HW249241   3.988   7.023   1.925  0.9471 -0.8976  1.4030
15934SOL     OW49242   4.528   5.745   2.890  0.2815  0.4173  0.1248
15934SOL    HW149243   4.507   5.652   2.901 -0.9960  0.5383 -1.0675
15934SOL    HW249244   4.502   5.785   2.973  1.2764 -0.3354  0.8290
15935SOL     OW49245   5.229   5.626   0.713  0.3698 -0.2603 -0.1622
15935SOL    HW149246   5.211   5.663   0.626  1.9766  0.9019 -0.0511
15935SOL    HW249247   5.268   5.541   0.695  1.4030  0.2870 -0.6497
15936SOL     OW49248   5.677   7.000   0.439  0.0133  0.2884 -0.1589
15936SOL    HW149249   5.725   6.962   0.513  0.3651 -0.5844 -0.7981
15936SOL    HW249250   5.655   7.089   0.466  0.3867  0.0780  0.8712
15937SOL     OW49251   4.545   6.147  12.456  0.2636  0.0343 -0.0329
15937SOL    HW149252   4.604   6.197  12.400  0.1574  1.7218  1.2839
15937SOL    HW249253   4.468   6.131  12.403  0.2625  1.3788 -0.4636
15938SOL     OW49254   5.743   7.808   0.671 -0.0543  0.0225  0.0646
15938SOL    HW149255   5.755   7.765   0.756 -1.0519 -1.9782 -0.7476
15938SOL    HW249256   5.825   7.856   0.656  1.0345 -1.4319  1.1176
15939SOL     OW49257   2.016   6.748   1.370  0.1093 -0.2262  0.3613
15939SOL    HW149258   2.109   6.729   1.356  0.4288 -0.2717  2.2463
15939SOL    HW249259   2.016   6.822   1.430 -1.1069  0.3093 -0.2683
15940SOL     OW49260   4.115   5.490   1.676 -0.1291 -0.3517 -0.5302
15940SOL    HW149261   4.061   5.551   1.626 -0.0193  1.6909  1.6743
15940SOL    HW249262   4.052   5.430   1.716 -0.5468  0.4212 -0.0153
15941SOL     OW49263   5.555   0.855   2.528 -0.4091 -0.1446  0.2957
15941SOL    HW149264   5.469   0.879   2.494 -0.1900  0.6380  0.2680
15941SOL    HW249265   5.561   0.901   2.612  0.9073  1.7870 -0.7665
15942SOL     OW49266   4.912   5.921   1.702  0.5730  0.3573  0.3959
15942SOL    HW149267   4.976   5.895   1.636  1.8337  1.1752  1.2497
15942SOL    HW249268   4.880   5.839   1.740 -0.9329 -0.1982 -1.8502
15943SOL     OW49269   2.945   6.699   2.621 -0.0162  0.0878  0.3532
15943SOL    HW149270   2.888   6.626   2.648  0.2734 -0.8263 -1.3480
15943SOL    HW249271   3.027   6.683   2.667  0.1491 -0.8679 -0.2378
15944SOL     OW49272   4.691   7.057   2.564  0.2148 -0.7237 -0.1467
15944SOL    HW149273   4.742   7.116   2.620 -0.1475 -1.1540  0.6512
15944SOL    HW249274   4.650   7.115   2.500  1.2327 -0.3041 -0.4444
15945SOL     OW49275   3.401   6.632   0.460 -0.3919 -0.0487  0.1830
15945SOL    HW149276   3.374   6.554   0.412  0.8357  0.3966 -1.3078
15945SOL    HW249277   3.471   6.602   0.518 -0.2364 -0.1570 -0.0587
15946SOL     OW49278   5.120   7.847   2.717  0.6624  0.0596 -0.3514
15946SOL    HW149279   5.038   7.881   2.681  0.1165  0.5187  1.1972
15946SOL    HW249280   5.106   7.752   2.723 -0.3443  0.2672  1.1777
15947SOL     OW49281   5.212   6.898   0.595  0.2423  0.0018  0.1403
15947SOL    HW149282   5.290   6.842   0.597  0.2131 -0.0167  0.8988
15947SOL    HW249283   5.206   6.925   0.504  0.0871 -1.4542 -0.3105
15948SOL     OW49284   4.788   0.190   2.455  0.2046 -0.2455 -0.3015
15948SOL    HW149285   4.855   0.256   2.434 -0.9521  0.9357 -0.3897
15948SOL    HW249286   4.761   0.211   2.545  0.4322 -1.1632 -0.0043
15949SOL     OW49287   5.261   0.907   2.069 -0.3881 -0.8018 -1.0045
15949SOL    HW149288   5.293   0.819   2.051  2.7356  0.2158 -1.0825
15949SOL    HW249289   5.274   0.919   2.163  1.9037  0.4067 -1.3871
15950SOL     OW49290   3.397   6.961   1.029  0.0643 -0.7118  0.1657
15950SOL    HW149291   3.449   6.995   0.957 -1.0694  2.4816  0.7187
15950SOL    HW249292   3.328   6.910   0.987  0.0862  0.1351 -0.9433
15951SOL     OW49293   5.246   6.027   0.853 -0.2785  0.1750  0.5920
15951SOL    HW149294   5.187   6.093   0.888  1.4010  1.1545  1.6997
15951SOL    HW249295   5.313   6.017   0.920  0.5185 -1.3031 -0.3836
15952SOL     OW49296   4.992   0.609   0.624 -0.0808 -0.3117 -0.0047
15952SOL    HW149297   4.978   0.664   0.547  2.0985 -0.0041 -0.2446
15952SOL    HW249298   5.072   0.643   0.664  0.3646 -2.2112  0.8327
15953SOL     OW49299   5.022   0.240   2.089  0.2887 -0.1151  0.1372
15953SOL    HW149300   5.032   0.260   1.996 -0.4186 -0.2256  0.0271
15953SOL    HW249301   4.937   0.277   2.112  0.1125 -0.7662  0.5495
15954SOL     OW49302   3.941   6.542   0.638 -0.1226  0.0584 -0.5413
15954SOL    HW149303   3.894   6.576   0.562 -0.7411  1.4744  0.4376
15954SOL    HW249304   4.028   6.580   0.632 -0.8107  1.9526  0.5491
15955SOL     OW49305   5.519   0.921   1.881 -0.0258 -0.3331  0.0772
15955SOL    HW149306   5.498   0.995   1.937  1.0890  0.4622 -0.5315
15955SOL    HW249307   5.446   0.916   1.819  0.1265  0.5686 -0.1866
15956SOL     OW49308   5.020   0.205  12.134  0.1667 -0.3280 -0.6015
15956SOL    HW149309   4.965   0.277  12.104  0.1123  1.0764  2.4673
15956SOL    HW249310   4.958   0.138  12.163  0.0350  0.2769  0.6221
15957SOL     OW49311   5.568   0.113   1.277 -0.1206  0.1053 -0.5418
15957SOL    HW149312   5.515   0.096   1.355 -0.0104  1.5422 -0.1095
15957SOL    HW249313   5.601   0.202   1.291  4.1351 -1.3850  0.2269
15958SOL     OW49314   4.498   4.815   0.861 -0.0021 -0.0510  0.1285
15958SOL    HW149315   4.553   4.874   0.912  1.3219 -0.3554 -0.8918
15958SOL    HW249316   4.467   4.868   0.788  0.9137 -0.4946 -0.6053
15959SOL     OW49317   3.931   6.274   0.624 -0.0446 -0.2378 -0.6651
15959SOL    HW149318   4.023   6.253   0.642  0.1735 -0.8876 -2.3572
15959SOL    HW249319   3.927   6.370   0.630  0.3808 -0.2880  0.8868
15960SOL     OW49320   1.913   7.464  12.224 -0.5361  0.1475  0.1873
15960SOL    HW149321   1.949   7.481  12.311  0.8883  1.3054 -0.5637
15960SOL    HW249322   1.990   7.468  12.166 -1.6255  0.7932 -1.2717
15961SOL     OW49323   4.911   4.873   0.803 -0.3005 -0.5010 -0.0017
15961SOL    HW149324   4.963   4.846   0.878 -1.8196 -2.5774  0.4016
15961SOL    HW249325   4.862   4.795   0.777 -2.7564  1.1147 -0.7046
15962SOL     OW49326   3.426   7.842   0.022 -0.7059 -0.1316 -0.8614
15962SOL    HW149327   3.337   7.809   0.037  0.2105 -2.7329 -0.6560
15962SOL    HW249328   3.431   7.855  -0.073 -1.0212 -0.9480 -0.9989
15963SOL     OW49329   5.424   1.370   1.901 -0.4656  0.0818 -0.5115
15963SOL    HW149330   5.346   1.388   1.848 -1.2469 -0.1115  0.5479
15963SOL    HW249331   5.399   1.393   1.990  0.7354  0.1231 -0.1601
15964SOL     OW49332   2.788   6.422   2.993  0.1461  0.0111  0.6668
15964SOL    HW149333   2.761   6.460   2.909  1.1771  0.8384  0.6901
15964SOL    HW249334   2.781   6.495   3.055  2.4034  0.2697  0.6719
15965SOL     OW49335   5.271   0.059   0.996 -0.4227  0.3109 -0.0122
15965SOL    HW149336   5.323   0.105   0.930  0.7381  0.1985  0.7931
15965SOL    HW249337   5.181   0.068   0.966 -0.1653  2.3837 -0.3243
15966SOL     OW49338   3.637   7.157  12.384  0.4424  0.6638 -0.2943
15966SOL    HW149339   3.610   7.075  12.345 -0.8625  0.9172  0.0430
15966SOL    HW249340   3.711   7.186  12.331  1.1437 -0.8798 -0.2116
15967SOL     OW49341   3.951   5.614   1.138 -0.6342  0.3256  0.0230
15967SOL    HW149342   3.922   5.554   1.070  0.4916 -0.8623  0.5478
15967SOL    HW249343   3.875   5.628   1.193 -0.3142 -2.8383  1.4794
15968SOL     OW49344   5.339   7.285   0.503 -0.0763 -0.2735 -0.2770
15968SOL    HW149345   5.287   7.255   0.577  0.1021  1.9289  0.8188
15968SOL    HW249346   5.427   7.252   0.522  0.0715  0.6693  0.7739
15969SOL     OW49347   5.927   4.967   0.711  0.5831  0.1768  0.0030
15969SOL    HW149348   5.907   5.047   0.662  1.6186  1.5533  1.6910
15969SOL    HW249349   5.939   4.900   0.643 -0.2383  1.4409 -1.4737
15970SOL     OW49350   4.628   5.648   0.804 -0.3665 -0.7001 -0.1107
15970SOL    HW149351   4.549   5.650   0.858 -1.1560 -1.2014 -1.2107
15970SOL    HW249352   4.596   5.657   0.714  0.8087 -1.1432 -0.5956
15971SOL     OW49353   3.005   7.173   1.964 -0.3317  1.0355  0.3996
15971SOL    HW149354   3.023   7.080   1.971 -1.7385  0.7918  1.1145
15971SOL    HW249355   3.014   7.193   1.871  4.7333  1.2754  0.6927
15972SOL     OW49356   4.103   7.590   1.584  0.2336  0.3074  0.1108
15972SOL    HW149357   4.028   7.649   1.575  0.9573  0.9900 -1.9056
15972SOL    HW249358   4.068   7.515   1.633 -2.2496 -0.1517 -2.0966
15973SOL     OW49359   5.632   0.354   1.001  0.3370 -0.1048  0.0863
15973SOL    HW149360   5.662   0.347   1.092  0.2460 -0.0394  0.1218
15973SOL    HW249361   5.585   0.437   0.998 -0.5089 -0.5672  0.2300
15974SOL     OW49362   3.035   5.867   0.917 -0.5885 -0.1013  0.0550
15974SOL    HW149363   2.975   5.867   0.992 -0.1332  0.0423  0.4214
15974SOL    HW249364   2.991   5.922   0.852 -0.4674  0.7244  0.6472
15975SOL     OW49365   6.063   7.718   0.183  0.1659  0.9161 -0.3817
15975SOL    HW149366   5.972   7.728   0.156 -0.3105  0.7388  1.0549
15975SOL    HW249367   6.058   7.673   0.268  1.5885  0.9030 -0.2807
15976SOL     OW49368   4.618   6.092   2.567 -0.4022 -0.0548  0.2356
15976SOL    HW149369   4.679   6.083   2.493 -0.8874 -0.1653 -0.1563
15976SOL    HW249370   4.595   6.002   2.589  1.0331 -0.1291  1.6326
15977SOL     OW49371   4.433   1.396   2.084 -0.0074 -0.0834 -0.0798
15977SOL    HW149372   4.413   1.443   2.003  0.9921 -1.9479 -1.5041
15977SOL    HW249373   4.403   1.307   2.067  0.9194 -0.6896  1.3141
15978SOL     OW49374   4.790   5.779   1.397 -0.5550  0.1274  0.0559
15978SOL    HW149375   4.706   5.734   1.398 -0.7020  0.3336 -1.3283
15978SOL    HW249376   4.853   5.711   1.373 -0.4455  0.1811  0.1853
15979SOL     OW49377   5.989   0.624   1.376 -0.3167 -0.2203 -0.2207
15979SOL    HW149378   5.972   0.530   1.366 -0.4519 -0.2250  0.0393
15979SOL    HW249379   6.058   0.643   1.312  1.5172 -1.0193  1.4108
15980SOL     OW49380   4.496   0.442  11.994 -0.3445  0.9432 -0.0467
15980SOL    HW149381   4.557   0.465  12.065 -0.7538  1.7238  0.0623
15980SOL    HW249382   4.409   0.458  12.032 -0.6688 -0.9277  0.0784
15981SOL     OW49383   4.670   5.736   1.127 -1.1247  0.1821  0.1390
15981SOL    HW149384   4.659   5.822   1.168 -0.5687 -0.7453  2.4127
15981SOL    HW249385   4.677   5.675   1.201  2.4713 -1.3368 -1.2006
15982SOL     OW49386   5.159   5.510  12.500 -0.2793  0.1192  0.3301
15982SOL    HW149387   5.081   5.497  12.555  0.6489 -3.6832  1.0151
15982SOL    HW249388   5.124   5.541  12.416 -2.1252  1.8923  1.6644
15983SOL     OW49389   4.428   5.041   1.083 -0.4737 -0.0456  0.5821
15983SOL    HW149390   4.500   5.035   1.020 -2.3260  1.0975 -1.7819
15983SOL    HW249391   4.442   5.125   1.127 -0.8032  0.6004 -0.5090
15984SOL     OW49392   5.570   5.822   1.570  0.1079 -0.1756 -0.3230
15984SOL    HW149393   5.564   5.752   1.504  0.9392 -0.7610  0.2081
15984SOL    HW249394   5.533   5.783   1.649  0.9174 -0.1441  0.0759
15985SOL     OW49395   5.149   7.272   0.680  0.2437  0.2902  0.2210
15985SOL    HW149396   5.068   7.274   0.630  0.4856 -0.4660 -0.2236
15985SOL    HW249397   5.131   7.325   0.757 -0.7276 -0.0206  0.2189
15986SOL     OW49398   2.490   5.543   0.225  0.3804  0.1859  0.3090
15986SOL    HW149399   2.438   5.574   0.151  1.2007 -0.5386 -0.5927
15986SOL    HW249400   2.474   5.448   0.227  1.7296 -0.0677 -0.0560
15987SOL     OW49401   4.475   7.092   1.844 -0.0278 -0.3877 -0.0784
15987SOL    HW149402   4.491   7.006   1.804  0.9669 -0.0351 -0.4594
15987SOL    HW249403   4.462   7.151   1.770  0.6684  0.0517  0.1438
15988SOL     OW49404   3.589   0.131  12.484 -0.8085  0.1355 -0.4529
15988SOL    HW149405   3.561   0.208  12.433  1.6503 -0.0104 -2.2241
15988SOL    HW249406   3.604   0.064  12.418  1.8366 -0.2987  0.4701
15989SOL     OW49407   2.902   6.486  11.891 -0.5253  0.3829  0.2481
15989SOL    HW149408   2.878   6.565  11.940 -2.0585 -0.8504  1.5902
15989SOL    HW249409   2.928   6.423  11.958 -0.5672 -0.6713 -0.6925
15990SOL     OW49410   6.161   7.489  12.182 -0.3768  0.1419 -0.3744
15990SOL    HW149411   6.141   7.464  12.272  2.0775  0.6313  0.3956
15990SOL    HW249412   6.086   7.458  12.131 -2.1246  0.3784  1.8864
15991SOL     OW49413   4.732   7.323   3.207 -0.4997  0.5921  0.3380
15991SOL    HW149414   4.694   7.403   3.171  0.4953  0.5440 -0.8786
15991SOL    HW249415   4.785   7.288   3.136 -1.0640 -1.2673  0.7806
15992SOL     OW49416   4.380   7.353   2.083 -0.2786 -0.3865 -0.2982
15992SOL    HW149417   4.459   7.299   2.082 -0.1493 -0.2194  0.5784
15992SOL    HW249418   4.397   7.421   2.018  0.6446  0.1283  0.4616
15993SOL     OW49419   4.934   7.372   1.684  0.2223 -0.0338 -0.0280
15993SOL    HW149420   4.973   7.286   1.698  0.9731  0.1970 -0.6365
15993SOL    HW249421   4.867   7.358   1.617  0.8481 -0.0177 -0.6644
15994SOL     OW49422   6.059   6.743   2.264  0.9013  0.0378  0.1033
15994SOL    HW149423   6.026   6.683   2.197  0.1599 -1.0636  1.3995
15994SOL    HW249424   5.980   6.775   2.308  1.4172 -1.1557  2.0124
15995SOL     OW49425   5.219   3.966   0.048  0.2663  0.0811  0.3052
15995SOL    HW149426   5.194   4.001   0.134 -1.5031  2.3006 -1.0192
15995SOL    HW249427   5.187   3.876   0.049 -1.4535  0.6501  1.3178
15996SOL     OW49428   5.023   0.165   0.218  0.6673  0.3852  0.3619
15996SOL    HW149429   4.984   0.235   0.270  0.9272 -0.1794  1.3585
15996SOL    HW249430   5.111   0.153   0.255  0.0903 -1.4861  1.2693
15997SOL     OW49431   3.667   5.713   0.867  0.0190 -0.4046 -0.4011
15997SOL    HW149432   3.595   5.660   0.832 -0.9018 -0.1663  1.0308
15997SOL    HW249433   3.724   5.650   0.911 -0.1921 -0.4068 -0.1281
15998SOL     OW49434   4.767   7.785   0.184 -0.0363  0.3416 -0.1816
15998SOL    HW149435   4.765   7.791   0.280 -1.1726  2.5081 -0.2864
15998SOL    HW249436   4.794   7.872   0.156  0.6173 -0.3680 -1.8514
15999SOL     OW49437   3.753   6.199   0.420  0.1706 -0.2860  0.1533
15999SOL    HW149438   3.798   6.207   0.504  0.7784  0.3565 -0.2252
15999SOL    HW249439   3.810   6.244   0.358 -0.2365 -0.8232 -0.6196
16000SOL     OW49440   4.775   4.315  11.259 -0.4041  0.1441  0.4578
16000SOL    HW149441   4.849   4.367  11.228 -2.3193  2.3976 -0.6398
16000SOL    HW249442   4.815   4.237  11.299  2.5547  1.7274  0.8467
16001SOL     OW49443   3.799   6.642   0.856 -0.1614  0.1106  0.5757
16001SOL    HW149444   3.849   6.593   0.790 -1.7460 -1.0961  0.2206
16001SOL    HW249445   3.866   6.676   0.916  1.1201 -1.0871 -0.1131
16002SOL     OW49446   4.261   0.561   0.562 -0.3464 -0.3769 -0.5890
16002SOL    HW149447   4.350   0.528   0.546 -0.2192 -0.3705  0.0628
16002SOL    HW249448   4.260   0.648   0.521 -0.1532 -0.5040 -0.8669
16003SOL     OW49449   5.459   5.429   0.603  0.1650 -0.0629  0.2474
16003SOL    HW149450   5.520   5.450   0.533  0.3063 -4.3117 -1.2272
16003SOL    HW249451   5.374   5.423   0.559 -0.2480 -0.0487  1.0288
16004SOL     OW49452   5.365   6.845   0.110  0.2071 -0.1884  0.7313
16004SOL    HW149453   5.358   6.934   0.075  0.1093  0.3332  2.0344
16004SOL    HW249454   5.459   6.830   0.117  0.2374 -0.4287 -0.0365
16005SOL     OW49455   4.309   5.445   1.346  0.1552 -0.1394  0.6416
16005SOL    HW149456   4.372   5.450   1.417 -1.1885  0.0167  1.8787
16005SOL    HW249457   4.235   5.395   1.383 -0.4427 -0.3392 -0.7526
16006SOL     OW49458   4.454   5.265   0.723  0.4301 -0.0689 -0.3831
16006SOL    HW149459   4.443   5.274   0.818 -1.4973 -1.8599 -0.3490
16006SOL    HW249460   4.373   5.300   0.686  0.6811 -0.4157 -1.2854
16007SOL     OW49461   4.123   7.160   0.243 -0.2502  0.0102 -0.0913
16007SOL    HW149462   4.084   7.074   0.261 -0.2279  0.2934  1.4433
16007SOL    HW249463   4.185   7.143   0.172 -3.0486 -0.4458 -2.6522
16008SOL     OW49464   6.280   6.825   1.580  0.1867  0.4425 -0.2789
16008SOL    HW149465   6.305   6.863   1.665 -1.6219 -0.1245  0.5535
16008SOL    HW249466   6.195   6.784   1.596 -1.1364  1.9437 -2.8287
16009SOL     OW49467   3.976   6.519   3.181 -0.4690 -0.0146  0.1608
16009SOL    HW149468   4.069   6.532   3.160 -0.5288  0.4580  0.1779
16009SOL    HW249469   3.930   6.536   3.099 -0.6029  0.5757  0.3520
16010SOL     OW49470   4.559   5.794   4.413  0.6229 -0.0193  0.1493
16010SOL    HW149471   4.576   5.802   4.506 -1.1088 -0.7457  0.5669
16010SOL    HW249472   4.481   5.847   4.398  0.2632 -0.7649 -0.6793
16011SOL     OW49473   6.702   0.666   3.749 -0.8262  0.0344  0.1421
16011SOL    HW149474   6.730   0.726   3.680 -1.9643  1.2922  0.7185
16011SOL    HW249475   6.677   0.723   3.822  0.4441 -1.2567  1.6669
16012SOL     OW49476   7.932   7.347   2.987 -0.4707  0.5042 -0.2134
16012SOL    HW149477   7.981   7.301   2.918  0.0575 -1.5941  1.4486
16012SOL    HW249478   7.870   7.282   3.019 -0.3661  1.2367  1.5970
16013SOL     OW49479   5.761   7.347   3.584  0.0075  0.3831 -0.1227
16013SOL    HW149480   5.743   7.254   3.603  0.2767  0.4782  0.6179
16013SOL    HW249481   5.856   7.353   3.584 -0.0119  0.7299  0.2097
16014SOL     OW49482   6.369   5.912   1.519  0.0459 -0.8821 -0.0078
16014SOL    HW149483   6.444   5.885   1.572  0.9654 -0.1211 -0.8662
16014SOL    HW249484   6.408   5.963   1.448 -1.3100 -0.3153 -0.3741
16015SOL     OW49485   4.069   5.090   1.871  0.4884 -0.2601  0.4070
16015SOL    HW149486   4.097   5.053   1.787 -1.1925 -2.2776  0.6644
16015SOL    HW249487   4.038   5.178   1.849  2.0177  0.0534 -0.6973
16016SOL     OW49488   5.343   7.436   4.626  0.1593 -0.2562  0.1361
16016SOL    HW149489   5.265   7.456   4.575  0.1654  1.0292  0.6102
16016SOL    HW249490   5.314   7.368   4.687 -0.3052 -0.5310 -0.3767
16017SOL     OW49491   3.654   6.892   2.140 -0.3942  0.2005 -0.3556
16017SOL    HW149492   3.728   6.930   2.186 -0.4780  2.3212 -1.8575
16017SOL    HW249493   3.677   6.800   2.130  1.4318  0.5372  0.3465
16018SOL     OW49494   6.099   6.540   3.574  0.5900  0.1056  0.6239
16018SOL    HW149495   6.018   6.493   3.593  1.0906 -1.3801 -0.7660
16018SOL    HW249496   6.071   6.631   3.560 -0.8619 -0.4069 -0.0169
16019SOL     OW49497   3.923   0.259   5.189 -0.0942 -0.2062  0.3250
16019SOL    HW149498   3.982   0.205   5.137 -0.9606  0.4544 -1.4362
16019SOL    HW249499   3.935   0.347   5.155 -1.6646  0.0363  0.3230
16020SOL     OW49500   5.393   5.036   2.799  0.0880  0.6031  0.3424
16020SOL    HW149501   5.377   5.035   2.705  0.4050  3.5934  0.1680
16020SOL    HW249502   5.332   4.971   2.834 -1.0419  0.4134 -1.7987
16021SOL     OW49503   4.555   6.351   2.540 -0.0094 -0.6825 -0.3558
16021SOL    HW149504   4.564   6.257   2.559  2.2556 -0.4064  0.2349
16021SOL    HW249505   4.506   6.386   2.614 -3.1016 -1.6837 -1.7255
16022SOL     OW49506   6.258   6.034   2.227 -0.1190 -0.2733 -0.6508
16022SOL    HW149507   6.179   6.004   2.271 -1.9753  0.0864 -3.5367
16022SOL    HW249508   6.228   6.097   2.162  2.6782  0.7322 -1.1344
16023SOL     OW49509   3.334   1.415   1.821  0.2442  0.2803 -0.0266
16023SOL    HW149510   3.368   1.382   1.904  0.8878 -0.4874 -0.5756
16023SOL    HW249511   3.374   1.358   1.755 -1.4554 -0.1316 -0.7713
16024SOL     OW49512   5.907   0.517   3.717  0.4089  0.6075  0.0254
16024SOL    HW149513   5.847   0.569   3.771 -0.4699  0.2361 -0.5697
16024SOL    HW249514   5.909   0.431   3.758  0.0827  0.4534 -0.2747
16025SOL     OW49515   5.023   6.906   3.728 -0.5041 -0.3755  0.1716
16025SOL    HW149516   4.977   6.840   3.780  0.9346 -0.5642  1.3029
16025SOL    HW249517   5.111   6.869   3.715 -0.5710  0.0560 -1.7084
16026SOL     OW49518   4.053   4.571   1.553 -0.0498  0.6442 -0.0729
16026SOL    HW149519   3.963   4.594   1.576  0.0031 -0.1951  1.1100
16026SOL    HW249520   4.049   4.477   1.533  0.5067  0.6666 -0.3059
16027SOL     OW49521   2.086   0.470   3.120  0.1748  0.2651 -0.0606
16027SOL    HW149522   2.038   0.550   3.139 -0.4841  0.4420 -2.2019
16027SOL    HW249523   2.152   0.496   3.055  0.7084 -0.7017  0.0702
16028SOL     OW49524   5.321   6.846   2.929 -0.2736  0.3163  0.3112
16028SOL    HW149525   5.290   6.885   2.847  0.2405 -2.2256 -1.1931
16028SOL    HW249526   5.415   6.839   2.918 -0.2564 -0.4779  0.9200
16029SOL     OW49527   5.513   6.025   5.114 -0.3319 -0.1513  0.0081
16029SOL    HW149528   5.477   5.940   5.140 -2.0023  0.2931 -0.6925
16029SOL    HW249529   5.468   6.088   5.170 -0.6207  0.4251 -0.8530
16030SOL     OW49530   5.644   7.063   3.259 -0.1449  0.0456 -0.1493
16030SOL    HW149531   5.668   7.016   3.179 -3.1208 -0.6091 -0.8055
16030SOL    HW249532   5.724   7.066   3.310  2.3803  1.9616 -3.7905
16031SOL     OW49533   6.085   6.846   0.856  0.2932  0.0937 -0.8876
16031SOL    HW149534   6.020   6.841   0.786 -0.9912  0.6555  0.1993
16031SOL    HW249535   6.108   6.755   0.874 -1.5988 -0.2848 -0.0871
16032SOL     OW49536   3.706   6.439   2.625  0.2768 -0.5941  0.3819
16032SOL    HW149537   3.642   6.506   2.648  0.6660 -0.5563  1.4271
16032SOL    HW249538   3.700   6.431   2.530 -0.4794  0.2076  0.3514
16033SOL     OW49539   5.107   6.958   2.300  0.2159 -0.2864 -0.1121
16033SOL    HW149540   5.125   6.890   2.235 -0.1394 -0.1481 -0.3578
16033SOL    HW249541   5.086   7.035   2.248 -0.6923 -0.3378  0.1553
16034SOL     OW49542   6.252   0.194   3.186  0.1498  0.0964 -0.2109
16034SOL    HW149543   6.319   0.233   3.129 -0.3368 -1.3615 -1.8340
16034SOL    HW249544   6.229   0.112   3.144 -2.4781  0.4125  0.4455
16035SOL     OW49545   5.611   7.054   3.616 -0.1188 -0.6950 -0.1273
16035SOL    HW149546   5.615   7.078   3.709  0.5203 -0.4917 -0.2016
16035SOL    HW249547   5.520   7.027   3.602 -0.3850 -0.0926  0.4015
16036SOL     OW49548   4.058   6.439   1.130 -0.4076 -0.3152  0.1333
16036SOL    HW149549   4.020   6.482   1.207  0.0667  1.8044 -0.7400
16036SOL    HW249550   3.986   6.386   1.095 -0.6960 -1.1644  1.8560
16037SOL     OW49551   5.053   0.533   3.450  0.3270  0.0672 -0.0372
16037SOL    HW149552   5.125   0.485   3.490  0.9409 -0.6330 -1.8596
16037SOL    HW249553   4.976   0.478   3.464  1.0683 -1.7690 -2.3616
16038SOL     OW49554   4.539   5.946   0.931 -0.0422 -0.2492  0.1581
16038SOL    HW149555   4.579   6.002   0.997 -2.3326  1.0862  0.5207
16038SOL    HW249556   4.482   5.886   0.980  1.7861 -2.4782 -0.2879
16039SOL     OW49557   5.976   6.686   4.091  0.6702 -0.8519  0.1019
16039SOL    HW149558   5.885   6.659   4.087  0.3399  0.0355  1.1573
16039SOL    HW249559   5.973   6.777   4.120  1.8601 -0.5194 -0.7279
16040SOL     OW49560   4.391   6.030   0.701 -0.3521 -0.6263 -0.6071
16040SOL    HW149561   4.435   6.018   0.785 -1.1985 -1.0390 -0.2116
16040SOL    HW249562   4.350   5.945   0.683 -2.9040  0.3327  0.1806
16041SOL     OW49563   5.723   0.699   3.815  0.2616 -0.3925 -0.3744
16041SOL    HW149564   5.706   0.768   3.880  2.5278 -1.0666  1.0433
16041SOL    HW249565   5.650   0.707   3.753  0.0493  2.8419  0.0763
16042SOL     OW49566   5.297   4.991   3.692 -0.1431  0.1954 -0.0065
16042SOL    HW149567   5.262   5.065   3.643  1.0205  1.8195  1.4812
16042SOL    HW249568   5.220   4.945   3.725 -0.9165  2.0368  0.8745
16043SOL     OW49569   5.595   0.097   2.563  0.1697  0.0547 -0.2514
16043SOL    HW149570   5.512   0.090   2.515 -0.6498 -2.3227  1.3342
16043SOL    HW249571   5.662   0.074   2.499 -0.8803 -2.8205 -0.4882
16044SOL     OW49572   6.473   7.275   2.816 -0.0793  0.0114 -0.5910
16044SOL    HW149573   6.562   7.241   2.828 -0.2880 -0.9386 -1.5010
16044SOL    HW249574   6.434   7.273   2.903  0.0543 -1.8128 -0.5270
16045SOL     OW49575   3.976   6.204   3.551  0.0435  0.0131 -0.6273
16045SOL    HW149576   4.034   6.220   3.476 -0.8238 -0.2747 -1.3719
16045SOL    HW249577   3.961   6.291   3.588  0.9831  0.0882 -0.3932
16046SOL     OW49578   6.113   4.188   2.228  0.2689 -0.1555  0.3835
16046SOL    HW149579   6.063   4.161   2.151 -0.3324 -1.1790  1.1101
16046SOL    HW249580   6.141   4.277   2.209 -1.5485  0.3206 -0.1911
16047SOL     OW49581   6.012   1.343   1.781  0.0231 -0.2098  0.4242
16047SOL    HW149582   6.082   1.408   1.790 -0.8465  0.8039  0.0235
16047SOL    HW249583   6.020   1.311   1.691 -2.0663  2.3880 -0.8112
16048SOL     OW49584   5.847   7.380   3.958 -0.0178 -0.4944 -0.8179
16048SOL    HW149585   5.795   7.431   4.020 -0.7177 -1.4455 -0.6106
16048SOL    HW249586   5.795   7.302   3.941  1.4677 -1.6181 -0.3916
16049SOL     OW49587   5.379   5.836   2.682  0.5572  0.0453  0.1996
16049SOL    HW149588   5.285   5.848   2.665  0.9477  0.5414 -1.8315
16049SOL    HW249589   5.403   5.910   2.738 -0.1048  0.3629  0.0750
16050SOL     OW49590   7.168   7.617   4.166  0.5953  0.3147  0.2603
16050SOL    HW149591   7.261   7.629   4.186  1.4056 -1.0760 -2.2786
16050SOL    HW249592   7.142   7.540   4.216  1.4454 -0.6193 -0.6912
16051SOL     OW49593   3.488   5.626   4.142 -0.1060  0.5984 -0.1235
16051SOL    HW149594   3.557   5.573   4.102 -0.7633 -0.5413  0.2116
16051SOL    HW249595   3.407   5.580   4.119 -0.7793  1.9550 -0.5801
16052SOL     OW49596   3.449   5.476   3.098  0.0787  0.3832  0.1836
16052SOL    HW149597   3.384   5.426   3.148 -0.6230  0.2753 -0.8065
16052SOL    HW249598   3.464   5.555   3.149 -0.2224  0.0332  0.8208
16053SOL     OW49599   2.799   7.537   3.940  0.5029 -0.4244  0.7599
16053SOL    HW149600   2.855   7.499   3.872 -0.4174 -0.0285 -0.2506
16053SOL    HW249601   2.712   7.503   3.920  0.0187  0.6173  1.0451
16054SOL     OW49602   4.189   0.392   3.049  0.0841  0.1210  0.3249
16054SOL    HW149603   4.234   0.334   3.111 -0.3411 -1.1768 -0.5442
16054SOL    HW249604   4.229   0.372   2.965 -0.5399  0.6282 -0.0975
16055SOL     OW49605   5.145   5.276   2.370  0.5212  0.2302 -0.1287
16055SOL    HW149606   5.095   5.228   2.304 -2.0123 -1.0582  2.5500
16055SOL    HW249607   5.090   5.351   2.392  0.7230 -0.0458  1.3974
16056SOL     OW49608   4.954   6.938   2.550 -0.7485  0.3357  0.1507
16056SOL    HW149609   4.864   6.966   2.564 -0.5569  0.5690  1.0009
16056SOL    HW249610   4.971   6.955   2.457 -1.4778  0.5675  0.0569
16057SOL     OW49611   6.237   5.474   3.021 -0.4130 -0.3687  0.3399
16057SOL    HW149612   6.216   5.383   3.044  0.9617 -0.6903  0.3616
16057SOL    HW249613   6.303   5.467   2.952 -1.4950  0.6234 -0.8488
16058SOL     OW49614   4.217   6.342   1.935  0.0790 -0.2286  0.4632
16058SOL    HW149615   4.278   6.272   1.961  0.6734  0.7371  1.7511
16058SOL    HW249616   4.272   6.420   1.930 -1.0171  0.6350  1.5076
16059SOL     OW49617   6.781   1.243   2.034 -0.1265  0.1048 -0.3695
16059SOL    HW149618   6.750   1.259   1.945  1.0122 -0.2467 -0.8431
16059SOL    HW249619   6.873   1.221   2.024 -0.4015 -1.7238  0.7228
16060SOL     OW49620   4.986   7.541   3.663  0.3945 -0.5523 -0.0070
16060SOL    HW149621   4.985   7.516   3.571  0.2517  0.1214 -0.1986
16060SOL    HW249622   4.900   7.517   3.695  0.6405 -1.3116  0.1045
16061SOL     OW49623   5.595   7.322   1.541  0.0070 -0.1551 -0.7301
16061SOL    HW149624   5.597   7.395   1.603  1.3229 -0.6534 -0.1567
16061SOL    HW249625   5.522   7.267   1.571  0.8732 -0.5984  0.6541
16062SOL     OW49626   3.093   5.330   2.980 -0.1212  0.0683  0.2722
16062SOL    HW149627   3.119   5.319   3.071 -1.7098  0.2096  0.7740
16062SOL    HW249628   3.033   5.405   2.981  1.9624  1.9219 -1.3418
16063SOL     OW49629   2.395   5.836  12.289 -0.4357  0.1783 -0.2187
16063SOL    HW149630   2.439   5.919  12.268  0.1341  0.5140  2.0320
16063SOL    HW249631   2.305   5.848  12.257 -0.0374  1.1804 -1.0201
16064SOL     OW49632   7.906   5.557   2.623 -0.1997  0.2689  0.2419
16064SOL    HW149633   7.828   5.537   2.675  0.3714 -0.0338  1.0096
16064SOL    HW249634   7.892   5.646   2.592 -0.5732  0.4506  0.9122
16065SOL     OW49635   3.829   5.624   4.909 -0.1189 -0.2607 -0.0873
16065SOL    HW149636   3.817   5.637   4.815  1.4377  0.9339 -0.1458
16065SOL    HW249637   3.820   5.530   4.922  0.6048 -0.5543 -1.5834
16066SOL     OW49638   5.848   6.829   2.417  0.2104 -0.0556 -0.3545
16066SOL    HW149639   5.887   6.917   2.410  0.7185 -0.2152  0.3218
16066SOL    HW249640   5.755   6.845   2.431  0.3393  0.3893  0.0436
16067SOL     OW49641   4.527   5.428   2.596 -0.9391  0.4728 -0.0741
16067SOL    HW149642   4.436   5.418   2.568 -1.3790 -1.9102  1.8067
16067SOL    HW249643   4.527   5.397   2.687  1.7772  0.2546 -0.0807
16068SOL     OW49644   5.858   7.171  12.447  1.0877  0.2930  0.0766
16068SOL    HW149645   5.805   7.135  12.374  1.4394 -0.4964  0.1953
16068SOL    HW249646   5.948   7.158  12.419  1.2323  1.4186 -0.0160
16069SOL     OW49647   6.153   7.899   1.211 -0.4309 -0.1209  0.5758
16069SOL    HW149648   6.122   7.820   1.256 -0.8930 -0.5881 -0.5276
16069SOL    HW249649   6.133   7.883   1.118  1.5792  0.2931  0.0194
16070SOL     OW49650   5.936   6.007   2.693  0.4583  0.1062 -0.1749
16070SOL    HW149651   5.887   6.013   2.775  0.7627 -0.6282  0.0639
16070SOL    HW249652   5.945   5.913   2.677  1.3495  0.2358 -0.4786
16071SOL     OW49653   4.507   0.269   1.644  0.7175 -0.0649 -0.3540
16071SOL    HW149654   4.578   0.286   1.706 -0.2412  2.2066  0.2197
16071SOL    HW249655   4.430   0.309   1.684 -0.6981 -1.5212 -1.4628
16072SOL     OW49656   3.751   6.615   2.102  0.1849 -0.2198  0.0194
16072SOL    HW149657   3.741   6.577   2.190 -1.2934 -2.2595 -0.9518
16072SOL    HW249658   3.679   6.577   2.051  0.8457  1.1139 -2.0275
16073SOL     OW49659   6.427   6.238   4.661 -0.1419 -0.4187 -0.0262
16073SOL    HW149660   6.515   6.274   4.669 -0.6756  0.8889  0.1556
16073SOL    HW249661   6.437   6.145   4.683  0.9669 -0.0138  1.3046
16074SOL     OW49662   5.138   6.167   1.572  0.0667  0.2509 -0.3215
16074SOL    HW149663   5.172   6.158   1.661  0.9454 -1.8883 -0.8243
16074SOL    HW249664   5.120   6.077   1.544 -0.9037  0.9377 -2.0539
16075SOL     OW49665   3.292   5.202   0.941  0.1433  0.0921 -0.6052
16075SOL    HW149666   3.351   5.166   1.007  0.9775  0.2771 -1.2256
16075SOL    HW249667   3.208   5.213   0.986  1.1286  1.8878  0.9441
16076SOL     OW49668   5.441   6.216   2.417  0.4903 -0.7624  0.2559
16076SOL    HW149669   5.416   6.126   2.399  0.9273 -1.0442  1.0184
16076SOL    HW249670   5.507   6.210   2.486 -1.3557  0.2508  2.2405
16077SOL     OW49671   5.549   5.743   4.140  0.7236  0.2344 -0.2499
16077SOL    HW149672   5.461   5.755   4.103  0.6431  0.1286 -0.0937
16077SOL    HW249673   5.598   5.697   4.071  0.5491 -0.0377 -0.1942
16078SOL     OW49674   6.226   5.979   2.724  0.7564  0.6290 -0.0907
16078SOL    HW149675   6.220   5.978   2.628  1.4223  0.0003 -0.1379
16078SOL    HW249676   6.248   5.889   2.747  0.7777  0.8196  0.6415
16079SOL     OW49677   5.300   5.249   1.465 -0.0539 -0.0312 -0.1293
16079SOL    HW149678   5.298   5.178   1.530  1.8616 -0.8026 -0.8393
16079SOL    HW249679   5.295   5.205   1.381  0.0714  0.7835 -0.5741
16080SOL     OW49680   4.953   5.830   2.385  0.0215 -0.5447 -0.0397
16080SOL    HW149681   4.990   5.911   2.350  2.6334 -1.5142  0.2897
16080SOL    HW249682   4.899   5.796   2.313  0.6291  0.3940 -0.9714
16081SOL     OW49683   3.004   6.135   3.552  0.3909 -0.0558  0.3982
16081SOL    HW149684   3.003   6.075   3.627  0.0162 -0.4106  0.1047
16081SOL    HW249685   3.006   6.222   3.592 -2.1277 -0.1430  0.8641
16082SOL     OW49686   4.253   5.761   0.710  0.3007  0.2696 -0.6664
16082SOL    HW149687   4.304   5.717   0.778 -0.0395 -0.8493 -1.1029
16082SOL    HW249688   4.162   5.742   0.731  0.1914 -0.1025 -1.4170
16083SOL     OW49689   4.892   4.916   2.714  0.3194 -0.2431 -0.4372
16083SOL    HW149690   4.804   4.951   2.732 -0.8733 -2.6947 -1.0642
16083SOL    HW249691   4.923   4.887   2.800 -0.8115 -2.0765 -0.5826
16084SOL     OW49692   5.699   1.326   1.691 -0.3521 -0.5050  0.4784
16084SOL    HW149693   5.625   1.289   1.644 -0.0839 -1.7375  0.9851
16084SOL    HW249694   5.776   1.294   1.643 -0.1207  0.1639  0.3881
16085SOL     OW49695   4.280   6.953   2.704 -0.4274 -0.2220  0.1434
16085SOL    HW149696   4.243   7.042   2.707 -0.5752 -0.1599 -2.1358
16085SOL    HW249697   4.357   6.958   2.760  1.0794  2.1243 -1.9168
16086SOL     OW49698   6.087   0.233   2.470  0.7763 -0.0606  0.2373
16086SOL    HW149699   6.134   0.182   2.405  0.2217  0.9044 -0.9596
16086SOL    HW249700   6.119   0.323   2.459  0.6362  0.1389  1.2732
16087SOL     OW49701   5.410   6.564   1.624  0.0132  0.2927 -0.0496
16087SOL    HW149702   5.330   6.512   1.623 -0.4974  1.0347  0.8337
16087SOL    HW249703   5.432   6.572   1.716  1.9958 -1.1845 -0.3113
16088SOL     OW49704   4.716   0.617   2.791  0.5676 -0.1113  0.2300
16088SOL    HW149705   4.719   0.708   2.819 -2.0622  0.5121 -1.1460
16088SOL    HW249706   4.775   0.612   2.716 -0.4954  0.9367 -0.7191
16089SOL     OW49707   5.270   5.596   3.814 -0.2175  0.1685 -0.1939
16089SOL    HW149708   5.188   5.585   3.766  0.0296  0.7838 -0.7772
16089SOL    HW249709   5.310   5.509   3.813 -1.0937 -0.2608  0.5423
16090SOL     OW49710   4.471   6.241   1.353  0.0802 -0.0411  0.0289
16090SOL    HW149711   4.464   6.189   1.433  0.1454 -0.4672 -0.2388
16090SOL    HW249712   4.562   6.230   1.324  0.2835  0.7616  0.3271
16091SOL     OW49713   4.621   4.808   2.581 -0.2847 -0.2826  0.1727
16091SOL    HW149714   4.583   4.889   2.546 -0.6454 -1.0635 -1.3415
16091SOL    HW249715   4.557   4.778   2.646  0.5816  1.4014  1.8999
16092SOL     OW49716   5.179   7.029   3.942 -0.0037  0.0034  0.2953
16092SOL    HW149717   5.103   7.032   3.883 -1.8878  1.9371  2.6156
16092SOL    HW249718   5.173   6.944   3.984  0.6007 -0.8511 -1.2434
16093SOL     OW49719   4.842   6.860   1.710  0.3783 -0.6164  0.2737
16093SOL    HW149720   4.821   6.767   1.716  1.9916 -0.9925  0.4516
16093SOL    HW249721   4.937   6.864   1.715  0.4441  0.9295 -1.2120
16094SOL     OW49722   5.148   0.206   1.559  0.1012 -0.1961 -0.1111
16094SOL    HW149723   5.109   0.292   1.548 -2.4749 -1.0216  1.6506
16094SOL    HW249724   5.077   0.145   1.537  0.7804 -1.8158  1.9000
16095SOL     OW49725   6.807   1.485   3.230 -0.0780  0.3947 -0.2065
16095SOL    HW149726   6.824   1.551   3.164  1.5406  0.1773 -0.0286
16095SOL    HW249727   6.893   1.452   3.255 -0.8138 -1.6629 -0.1690
16096SOL     OW49728   4.637   6.904   0.950 -0.7065 -0.0631  0.6965
16096SOL    HW149729   4.698   6.855   1.005 -1.0189 -1.1325  0.1055
16096SOL    HW249730   4.560   6.848   0.943 -0.1866 -0.5915 -1.8948
16097SOL     OW49731   5.110   5.164   0.932 -0.5886  0.3974 -0.3515
16097SOL    HW149732   5.155   5.142   1.014  0.7132 -0.5135 -1.2562
16097SOL    HW249733   5.181   5.177   0.870 -1.5596  1.0102 -1.3549
16098SOL     OW49734   4.839   7.260   2.647 -0.3788 -0.5471 -0.2918
16098SOL    HW149735   4.926   7.277   2.610 -0.2296  1.8568  0.9950
16098SOL    HW249736   4.779   7.312   2.594 -0.4985  0.8202  1.1285
16099SOL     OW49737   5.014   6.589   2.382  0.3437  0.4530 -0.1669
16099SOL    HW149738   5.002   6.649   2.456  0.2467  0.5911 -0.2938
16099SOL    HW249739   5.030   6.504   2.423 -1.0967  0.2480  0.0366
16100SOL     OW49740   5.582   5.225   2.260 -0.2203 -0.0270 -0.7205
16100SOL    HW149741   5.578   5.135   2.227 -2.5025  0.0942 -0.9154
16100SOL    HW249742   5.516   5.228   2.328 -0.6878  1.6992 -1.2157
16101SOL     OW49743   6.393   6.700   2.851  0.1476 -0.1141 -0.1610
16101SOL    HW149744   6.417   6.735   2.937 -0.5933 -0.1821  0.0877
16101SOL    HW249745   6.324   6.636   2.870  0.7876 -0.9839 -0.7014
16102SOL     OW49746   5.638   7.418   2.462  0.4785  0.6078  0.5843
16102SOL    HW149747   5.651   7.326   2.437 -0.3155  1.0195 -1.5717
16102SOL    HW249748   5.723   7.447   2.495  1.1128 -0.5213 -0.0188
16103SOL     OW49749   5.213   4.878   2.881 -0.0954 -0.5689  0.2031
16103SOL    HW149750   5.249   4.802   2.927  0.3470  0.2122  1.1799
16103SOL    HW249751   5.125   4.888   2.917  0.0981 -0.2086  0.5815
16104SOL     OW49752   4.603   7.931   1.977 -0.9192  0.3435 -0.2461
16104SOL    HW149753   4.601   7.858   1.916  1.4503  0.1850 -0.2024
16104SOL    HW249754   4.628   7.891   2.061  2.9739  1.4088 -0.7411
16105SOL     OW49755   5.220   5.383   3.085  0.5169  0.2291 -0.5309
16105SOL    HW149756   5.277   5.399   3.010  0.8032  0.3175 -0.2949
16105SOL    HW249757   5.204   5.288   3.083 -2.0870  0.5784 -2.5901
16106SOL     OW49758   5.990   4.210   3.500 -0.2215  0.0789  0.5128
16106SOL    HW149759   5.919   4.153   3.470  0.2564  0.5890 -1.8653
16106SOL    HW249760   6.035   4.160   3.567 -1.6408 -1.0654  0.6658
16107SOL     OW49761   4.622   7.556   4.445  0.4152  0.3117 -0.0563
16107SOL    HW149762   4.562   7.594   4.509  1.4392 -0.1405  1.2185
16107SOL    HW249763   4.704   7.604   4.458  0.6804  0.1380 -0.9829
16108SOL     OW49764   6.711   0.850   1.803 -0.2231  0.1230 -0.0260
16108SOL    HW149765   6.651   0.891   1.865  1.1418 -0.2803  1.6568
16108SOL    HW249766   6.797   0.888   1.824  0.2387  0.2946 -2.0003
16109SOL     OW49767   5.340   5.683   3.578  0.4445 -0.2881  0.1834
16109SOL    HW149768   5.305   5.769   3.555  1.0550 -0.4074 -1.3165
16109SOL    HW249769   5.338   5.682   3.674 -0.6700  0.9210  0.2145
16110SOL     OW49770   5.980   7.080   2.075  0.1762 -0.0948 -0.2968
16110SOL    HW149771   5.994   7.005   2.017  1.3642  0.2802 -0.5132
16110SOL    HW249772   5.939   7.146   2.020  0.6376 -0.0035 -0.5392
16111SOL     OW49773   4.688   5.591   2.448  0.4463 -0.1167 -1.3653
16111SOL    HW149774   4.635   5.531   2.500  0.1375  0.9957 -0.3626
16111SOL    HW249775   4.668   5.567   2.357 -1.5351  0.0572 -1.0130
16112SOL     OW49776   5.267   5.700   2.300 -0.0673 -0.0888  0.2731
16112SOL    HW149777   5.305   5.684   2.386  0.5835  0.0426  0.0144
16112SOL    HW249778   5.309   5.635   2.243  1.9474  1.8660 -0.6163
16113SOL     OW49779   6.118   5.504   3.602 -0.1625  0.6076  0.3334
16113SOL    HW149780   6.070   5.477   3.680 -0.9446  0.6782 -0.1157
16113SOL    HW249781   6.084   5.591   3.581 -0.5190  0.2826 -0.5179
16114SOL     OW49782   7.454   5.484   4.836 -0.6608 -0.7325  0.8340
16114SOL    HW149783   7.488   5.396   4.818  1.9293 -0.5888  3.9786
16114SOL    HW249784   7.369   5.469   4.878 -0.4181 -1.7328  0.9872
16115SOL     OW49785   5.713   6.214   3.124  0.0234  0.1959 -0.1410
16115SOL    HW149786   5.619   6.223   3.140  0.2843  1.1585  1.0504
16115SOL    HW249787   5.751   6.293   3.162  1.1195  0.9483 -2.6259
16116SOL     OW49788   5.620   5.821   3.457 -0.6730 -0.6157 -0.0594
16116SOL    HW149789   5.635   5.767   3.379 -0.1917 -0.1088 -0.3256
16116SOL    HW249790   5.624   5.911   3.425  1.7729 -0.3231  0.8975
16117SOL     OW49791   3.479   5.858   4.289  0.1472 -0.2148 -0.3861
16117SOL    HW149792   3.485   5.793   4.219 -0.3690 -0.2020 -0.4436
16117SOL    HW249793   3.414   5.921   4.259  0.7071  0.3875 -0.3687
16118SOL     OW49794   4.522   7.016   2.847 -0.7983  0.3313 -0.5051
16118SOL    HW149795   4.530   7.109   2.867  0.9589 -0.0296  0.7757
16118SOL    HW249796   4.559   7.007   2.760  1.3620  0.5590  0.3217
16119SOL     OW49797   4.508   6.455   1.898 -0.2003 -0.9625  0.2412
16119SOL    HW149798   4.525   6.537   1.945  1.1510 -1.3028  0.3810
16119SOL    HW249799   4.509   6.388   1.966  1.0247 -1.3622 -0.1358
16120SOL     OW49800   5.389   4.807   1.394  0.1099  0.4432 -0.1486
16120SOL    HW149801   5.305   4.825   1.352  0.0442 -0.8823 -0.6184
16120SOL    HW249802   5.445   4.775   1.323  0.1867 -1.2379  0.6229
16121SOL     OW49803   4.402   7.370   3.061  0.3069  0.1504 -0.2597
16121SOL    HW149804   4.483   7.421   3.069 -0.2533  1.0393 -0.0047
16121SOL    HW249805   4.399   7.317   3.140  1.6370 -1.4343 -1.2093
16122SOL     OW49806   5.852   7.823   2.251 -0.3790 -0.2293  0.4196
16122SOL    HW149807   5.857   7.801   2.158 -1.5630 -0.9058  0.4900
16122SOL    HW249808   5.911   7.762   2.294  1.4288  1.1283 -0.0077
16123SOL     OW49809   5.728   7.134   2.754 -0.5307  0.2843  0.2366
16123SOL    HW149810   5.686   7.142   2.668 -0.8989 -0.4454  0.3391
16123SOL    HW249811   5.820   7.153   2.738 -0.5081 -0.3272 -0.4143
16124SOL     OW49812   5.696   7.819   2.652 -0.2711  0.4830  0.2343
16124SOL    HW149813   5.762   7.884   2.625 -0.7956  1.1061  0.4326
16124SOL    HW249814   5.718   7.741   2.603 -0.0210  1.0082 -0.5065
16125SOL     OW49815   6.263   4.041   1.610 -0.2542 -0.0456  0.1282
16125SOL    HW149816   6.254   3.990   1.530  0.9673  0.1231 -0.1404
16125SOL    HW249817   6.303   4.123   1.581  0.5665 -0.1390  0.9470
16126SOL     OW49818   4.361   6.465   2.392 -0.3408 -0.1044  0.3695
16126SOL    HW149819   4.425   6.536   2.381  0.6033 -0.9647  0.1191
16126SOL    HW249820   4.397   6.411   2.463 -0.1493 -1.2631 -0.5819
16127SOL     OW49821   5.027   6.482   2.935  0.6391  0.6544  0.2940
16127SOL    HW149822   5.066   6.457   2.852 -2.1033  0.9647 -1.2039
16127SOL    HW249823   4.995   6.400   2.972  3.1289  0.2982  1.8558
16128SOL     OW49824   4.794   0.293   2.717 -0.5405  0.0610 -0.0470
16128SOL    HW149825   4.851   0.362   2.684  0.8081 -0.8929  0.2134
16128SOL    HW249826   4.831   0.268   2.801 -2.2851  0.4969  0.9027
16129SOL     OW49827   6.569   6.268   4.216 -0.2398 -0.1423 -0.1640
16129SOL    HW149828   6.623   6.280   4.138 -2.2144 -0.3236 -1.6405
16129SOL    HW249829   6.508   6.342   4.214  0.3171  0.4535  1.8521
16130SOL     OW49830   6.277   6.210   4.426  0.2527  0.8619 -0.3033
16130SOL    HW149831   6.313   6.227   4.513 -0.2895 -2.9455  0.8363
16130SOL    HW249832   6.194   6.258   4.424  1.9796  4.1384 -0.3529
16131SOL     OW49833   4.905   0.227   0.915  0.4912 -0.0037 -0.0623
16131SOL    HW149834   4.913   0.216   1.010 -1.4533 -1.6487 -0.0125
16131SOL    HW249835   4.957   0.305   0.895  1.7838 -0.2079  2.1887
16132SOL     OW49836   4.946   0.533   1.858  0.9033 -0.4084  0.1901
16132SOL    HW149837   4.977   0.444   1.846  0.4243 -0.6012  0.3638
16132SOL    HW249838   5.007   0.572   1.921  0.4813 -0.9479  0.9390
16133SOL     OW49839   5.333   6.982   1.680  0.2787 -0.2815  0.4047
16133SOL    HW149840   5.411   6.934   1.653 -0.0837 -1.2695  1.0579
16133SOL    HW249841   5.365   7.070   1.702  1.0152 -0.3279 -0.4042
16134SOL     OW49842   4.854   7.548   4.100 -0.1883 -0.1915 -0.3497
16134SOL    HW149843   4.790   7.477   4.102 -0.3805 -0.0868 -1.7150
16134SOL    HW249844   4.939   7.505   4.110 -0.2349 -0.7380 -2.0503
16135SOL     OW49845   5.721   6.333   2.861 -0.2440  0.6364  0.1810
16135SOL    HW149846   5.723   6.419   2.903 -0.8087  0.6763  0.1330
16135SOL    HW249847   5.723   6.271   2.934  1.3670  0.6470  0.2002
16136SOL     OW49848   6.395   6.216   5.182 -0.0085  0.5756  0.5197
16136SOL    HW149849   6.388   6.121   5.196 -1.4657  0.6267  0.2257
16136SOL    HW249850   6.306   6.245   5.167  0.5462  1.8436 -0.4956
16137SOL     OW49851   4.881   5.151   3.747 -0.6363 -0.2969  0.3619
16137SOL    HW149852   4.791   5.175   3.768 -0.1221  0.8873  1.3307
16137SOL    HW249853   4.918   5.229   3.706  0.0902 -0.5919  0.4432
16138SOL     OW49854   4.032   0.128   1.987 -0.5128  0.4469 -0.5960
16138SOL    HW149855   4.054   0.053   2.043 -0.5424  0.7059 -0.2356
16138SOL    HW249856   4.085   0.200   2.022 -1.0810  0.7922 -0.4432
16139SOL     OW49857   4.621   5.485   1.689 -0.1302 -0.0044 -0.1081
16139SOL    HW149858   4.613   5.429   1.765 -0.5038 -0.9093 -0.7941
16139SOL    HW249859   4.536   5.476   1.644  0.0761  0.5191 -0.6192
16140SOL     OW49860   4.588   5.882   2.321  0.0078  0.1474 -0.1320
16140SOL    HW149861   4.562   5.863   2.411 -0.8747  1.0037 -0.1886
16140SOL    HW249862   4.636   5.965   2.326  2.1031 -0.9894 -0.1507
16141SOL     OW49863   3.951   7.019   3.330 -0.5654 -0.0302  0.0031
16141SOL    HW149864   3.897   7.067   3.392  0.8447  0.8788  0.5977
16141SOL    HW249865   3.917   7.043   3.244 -1.0017  0.6430  0.3594
16142SOL     OW49866   5.394   6.983   3.248 -0.0698  0.0750 -0.8827
16142SOL    HW149867   5.480   7.000   3.285 -0.3083  1.9975 -1.0859
16142SOL    HW249868   5.410   6.934   3.168  1.0568  2.1230 -1.9994
16143SOL     OW49869   3.295   6.299   2.797 -0.2929  0.2465 -0.3639
16143SOL    HW149870   3.309   6.390   2.824  2.2873  0.0389 -0.7160
16143SOL    HW249871   3.209   6.276   2.833  0.0309  2.0690  1.8280
16144SOL     OW49872   5.514   6.020   3.978  0.1928  0.1865 -0.2939
16144SOL    HW149873   5.461   5.941   3.988  2.2539 -1.0540  2.0309
16144SOL    HW249874   5.570   6.003   3.903 -0.8789  0.4378 -1.1766
16145SOL     OW49875   5.817   7.048   4.847  0.5651  0.3571 -0.3276
16145SOL    HW149876   5.742   7.008   4.803  0.4480 -0.0799  0.2596
16145SOL    HW249877   5.790   7.056   4.938  0.4205  2.2006 -0.4988
16146SOL     OW49878   4.672   5.734   5.474  0.4455 -0.4076 -0.3644
16146SOL    HW149879   4.637   5.768   5.392 -0.8700  0.7635  0.6447
16146SOL    HW249880   4.597   5.692   5.517  0.3709  1.4413  1.4835
16147SOL     OW49881   5.944   5.992   3.273  0.0339 -0.1838  0.2838
16147SOL    HW149882   5.986   5.971   3.190 -0.8749 -2.6313  0.3695
16147SOL    HW249883   5.850   5.992   3.252 -0.2297 -1.3180  1.3790
16148SOL     OW49884   5.184   5.794   1.937 -0.6813  0.4900  0.3453
16148SOL    HW149885   5.111   5.750   1.892 -0.5627  1.1875 -0.5647
16148SOL    HW249886   5.146   5.875   1.970 -0.2203  1.1313 -0.6227
16149SOL     OW49887   4.634   6.911   3.575  0.3290  0.0659  0.2624
16149SOL    HW149888   4.635   6.986   3.515 -2.2305 -0.5336 -0.6535
16149SOL    HW249889   4.667   6.838   3.523 -0.2378 -0.0879  0.1090
16150SOL     OW49890   4.866   5.682   2.113 -0.1230 -0.2252 -0.1799
16150SOL    HW149891   4.932   5.632   2.066  0.1479  0.9007 -1.0549
16150SOL    HW249892   4.786   5.629   2.107 -0.1561 -0.0457 -2.1287
16151SOL     OW49893   5.536   5.365   1.224  0.1414  0.1910  0.0427
16151SOL    HW149894   5.573   5.333   1.306 -0.9821  0.3774  0.6377
16151SOL    HW249895   5.465   5.303   1.204 -2.2559  2.3276  1.3479
16152SOL     OW49896   5.731   0.077   3.576 -0.0467  0.3755 -0.0561
16152SOL    HW149897   5.814   0.030   3.584  0.5670  1.1246 -1.6024
16152SOL    HW249898   5.670   0.012   3.541  0.5534  0.4164 -1.2655
16153SOL     OW49899   4.968   7.612   2.749  0.0955  0.3313  0.1147
16153SOL    HW149900   5.020   7.541   2.789  0.4930 -0.0161 -0.9813
16153SOL    HW249901   4.903   7.633   2.815 -0.4222 -1.4926  0.2616
16154SOL     OW49902   5.900   5.886   3.920  0.5075  0.3299  0.2907
16154SOL    HW149903   5.974   5.912   3.975 -1.4364  2.0252  2.2536
16154SOL    HW249904   5.883   5.795   3.945  2.0292 -0.1880 -0.3990
16155SOL     OW49905   4.238   5.683   4.587  0.3860 -0.0519  0.2147
16155SOL    HW149906   4.287   5.643   4.515 -1.0034 -1.1457 -0.1862
16155SOL    HW249907   4.247   5.777   4.573  1.8640 -0.2265 -0.1661
16156SOL     OW49908   4.952   4.157   0.252 -0.3858 -0.0957 -0.3203
16156SOL    HW149909   5.023   4.117   0.302 -0.6172 -1.0797 -0.7593
16156SOL    HW249910   4.894   4.085   0.230 -1.0901  0.5656 -0.7026
16157SOL     OW49911   4.467   6.706   1.053  0.5022  0.0801 -0.1768
16157SOL    HW149912   4.459   6.615   1.082  0.8612  0.6081  1.7531
16157SOL    HW249913   4.388   6.721   1.001 -0.7240 -0.7073  1.3488
16158SOL     OW49914   1.728   2.103   3.692 -0.5098 -0.0885  0.0123
16158SOL    HW149915   1.640   2.064   3.694  0.3877 -2.2092  2.0358
16158SOL    HW249916   1.712   2.197   3.701 -2.5822 -0.3854 -0.0772
16159SOL     OW49917   5.339   6.672   2.300 -0.0820  0.1926 -0.2374
16159SOL    HW149918   5.299   6.588   2.323  0.2381  0.2986  0.7485
16159SOL    HW249919   5.433   6.653   2.293 -0.2796 -0.1373 -2.9195
16160SOL     OW49920   3.919   0.459   3.109 -0.2698 -0.1261 -0.0179
16160SOL    HW149921   3.938   0.520   3.180 -0.3891  2.8623 -2.3324
16160SOL    HW249922   4.005   0.438   3.071 -0.3730  0.4535 -0.5955
16161SOL     OW49923   6.504   7.940   2.120 -0.2622 -0.1060 -0.4019
16161SOL    HW149924   6.578   7.885   2.095 -0.1573  0.1132 -0.5779
16161SOL    HW249925   6.521   7.963   2.211 -0.1262 -0.0754 -0.4348
16162SOL     OW49926   5.395   7.496   2.279 -0.2486 -0.6640 -0.5113
16162SOL    HW149927   5.348   7.553   2.339  2.4199  0.9594  0.2088
16162SOL    HW249928   5.479   7.480   2.322  0.5800 -1.9692 -2.4573
16163SOL     OW49929   5.374   5.730   3.208  0.1701  0.4014  0.1136
16163SOL    HW149930   5.286   5.693   3.210 -0.7317  2.4221  0.4007
16163SOL    HW249931   5.424   5.677   3.270 -0.3918 -1.7636 -1.2114
16164SOL     OW49932   5.487   0.657   2.305 -0.2344 -0.4709  0.0882
16164SOL    HW149933   5.516   0.680   2.217  0.8244 -1.6013  0.1091
16164SOL    HW249934   5.420   0.722   2.326 -0.7713 -0.4071 -1.6746
16165SOL     OW49935   3.599   7.919   3.231 -0.3861 -0.4898 -0.4630
16165SOL    HW149936   3.638   7.908   3.317  2.2281  1.0001 -1.3430
16165SOL    HW249937   3.566   8.009   3.230 -1.9534 -1.0275 -0.5023
16166SOL     OW49938   6.630   5.335   0.612 -0.3436 -0.2853 -0.6423
16166SOL    HW149939   6.564   5.266   0.605  1.6201 -2.2484 -0.8140
16166SOL    HW249940   6.615   5.375   0.698 -4.7157  2.6845 -2.4179
16167SOL     OW49941   6.675   0.519   3.199  1.0430  0.2774  0.1952
16167SOL    HW149942   6.668   0.537   3.293  0.7276 -1.0983  0.4635
16167SOL    HW249943   6.739   0.448   3.193  2.0109  1.1952 -0.7626
16168SOL     OW49944   3.702   5.973   5.260  0.2219  0.0134 -0.0567
16168SOL    HW149945   3.668   5.895   5.216 -0.8942  0.5486 -0.1906
16168SOL    HW249946   3.640   6.042   5.237  0.3893  0.6215  1.2062
16169SOL     OW49947   0.146   7.785   3.813 -0.4397  0.3152  0.6506
16169SOL    HW149948   0.082   7.835   3.863  0.4945  2.9918 -0.6260
16169SOL    HW249949   0.099   7.756   3.736 -0.7758 -0.0118  0.9777
16170SOL     OW49950   6.444   7.737   2.761 -0.3721 -0.0183  0.0437
16170SOL    HW149951   6.413   7.822   2.729  1.8425  1.4296  1.5117
16170SOL    HW249952   6.481   7.755   2.847  1.0400 -2.3008 -0.0053
16171SOL     OW49953   5.328   7.310   4.212 -0.4874  0.0372 -0.4589
16171SOL    HW149954   5.391   7.238   4.205  0.5739  0.9829 -0.9373
16171SOL    HW249955   5.336   7.357   4.129 -1.3699  0.5488 -0.2638
16172SOL     OW49956   4.703   7.054   1.576 -0.3000  0.5378 -0.4746
16172SOL    HW149957   4.778   7.064   1.518  0.1134  0.3769  0.0343
16172SOL    HW249958   4.736   7.006   1.652 -0.6008  1.5792  0.3478
16173SOL     OW49959   4.909   7.183   3.804 -0.0239  0.3390 -0.0257
16173SOL    HW149960   4.873   7.249   3.745  1.5000  0.5868 -0.7196
16173SOL    HW249961   4.872   7.100   3.772  0.5287  0.5085 -1.1467
16174SOL     OW49962   5.009   0.240   1.813  0.4999  0.2165 -0.1336
16174SOL    HW149963   4.955   0.179   1.763 -0.3290  0.4057  0.5170
16174SOL    HW249964   5.099   0.215   1.791  0.2121 -1.7004  0.6576
16175SOL     OW49965   2.189   6.962   3.219  0.2880  0.2442  0.4498
16175SOL    HW149966   2.109   6.964   3.167 -0.1503 -0.8638  1.0557
16175SOL    HW249967   2.259   6.980   3.156 -0.3137 -0.1678 -0.3495
16176SOL     OW49968   4.579   6.122   3.005 -0.0053  0.4672 -0.0280
16176SOL    HW149969   4.602   6.041   3.050  1.0451  1.3270  1.0408
16176SOL    HW249970   4.549   6.181   3.075 -0.3032  1.1643 -0.7224
16177SOL     OW49971   3.884   5.347   2.113 -0.2018  0.8937 -0.0492
16177SOL    HW149972   3.789   5.358   2.107 -0.2497  0.3984 -0.2465
16177SOL    HW249973   3.903   5.360   2.206 -0.0508  3.9987 -0.4271
16178SOL     OW49974   5.055   6.436   3.983  0.4613  0.2713  0.1232
16178SOL    HW149975   4.992   6.379   4.026 -0.2910  0.4413 -0.7343
16178SOL    HW249976   5.092   6.488   4.054 -0.3255  0.1330  0.6447
16179SOL     OW49977   2.941   5.555   3.112 -0.2052  0.2032  0.3254
16179SOL    HW149978   2.866   5.614   3.112  0.1364  0.6715  1.7851
16179SOL    HW249979   2.988   5.576   3.192  0.5711 -1.2473  0.2767
16180SOL     OW49980   5.566   7.537   2.692 -0.6803 -0.4804 -0.0784
16180SOL    HW149981   5.618   7.502   2.764  1.8508  1.4710 -0.7627
16180SOL    HW249982   5.620   7.521   2.614 -1.0187  1.7127 -0.8337
16181SOL     OW49983   5.704   6.517   2.091  0.0142  0.0481  0.6023
16181SOL    HW149984   5.613   6.537   2.070 -0.0787 -0.2840  0.6709
16181SOL    HW249985   5.711   6.422   2.077  0.0113 -0.1447  1.7979
16182SOL     OW49986   5.613   7.873   3.345 -0.5041 -0.1105 -0.3481
16182SOL    HW149987   5.589   7.860   3.437  1.9318 -1.6436  0.1651
16182SOL    HW249988   5.662   7.794   3.322  0.1828  0.8908 -2.5488
16183SOL     OW49989   5.935   7.585   2.838 -0.5786 -1.2069 -0.6783
16183SOL    HW149990   5.860   7.526   2.837  0.8169 -3.1363  1.0107
16183SOL    HW249991   6.009   7.529   2.860  1.4598  0.5648 -2.6431
16184SOL     OW49992   4.221   0.256   4.599  0.0552 -0.2289  0.1771
16184SOL    HW149993   4.198   0.164   4.581 -2.5099  0.5727 -1.1644
16184SOL    HW249994   4.173   0.306   4.532  0.2449  2.1883  1.7305
16185SOL     OW49995   5.924   6.737   3.481 -0.8573  0.1447  0.3201
16185SOL    HW149996   5.930   6.767   3.391  1.2203 -1.3495 -0.1294
16185SOL    HW249997   5.831   6.733   3.500 -1.3308  0.3734 -1.8131
16186SOL     OW49998   5.472   7.219   1.780  0.4116  0.3039  0.1854
16186SOL    HW149999   5.457   7.305   1.819 -0.4135 -1.0974  3.2477
16186SOL    HW250000   5.568   7.209   1.782  0.4137  0.4814  1.4073
16187SOL     OW50001   4.306   7.270   3.309  0.2083 -0.0730  0.2804
16187SOL    HW150002   4.212   7.282   3.305  0.2547  0.0179 -0.6784
16187SOL    HW250003   4.337   7.337   3.370 -0.1617  1.0661 -0.7410
16188SOL     OW50004   4.561   5.865   3.154  0.7464  0.1757  0.5889
16188SOL    HW150005   4.471   5.883   3.183  0.0991 -3.3827  1.2013
16188SOL    HW250006   4.611   5.859   3.236  0.8304 -1.0474  0.4546
16189SOL     OW50007   6.624   5.468   2.573  0.0828 -0.7022 -0.5312
16189SOL    HW150008   6.583   5.552   2.555  0.1447 -0.0736  1.9953
16189SOL    HW250009   6.718   5.486   2.572  0.1239 -0.9246 -0.7927
16190SOL     OW50010   2.579   6.365   3.337 -0.1494  0.3374  0.0091
16190SOL    HW150011   2.670   6.388   3.357 -0.0735  0.1968 -0.1749
16190SOL    HW250012   2.530   6.395   3.414  0.2167 -0.6773  0.6598
16191SOL     OW50013   5.241   7.725   1.752  0.3149  0.1510  0.3894
16191SOL    HW150014   5.225   7.715   1.658  0.9272 -0.4094  0.3451
16191SOL    HW250015   5.299   7.801   1.759  2.1588 -1.1959  0.1312
16192SOL     OW50016   5.216   5.481   1.289  0.1262 -0.3185 -0.0386
16192SOL    HW150017   5.249   5.397   1.317 -0.3118 -0.3730  0.3265
16192SOL    HW250018   5.163   5.461   1.211 -2.3743 -0.8268  1.6678
16193SOL     OW50019   5.056   5.679   0.477 -0.2149  0.1531 -0.3889
16193SOL    HW150020   5.108   5.754   0.449  0.7295 -0.3976 -0.1620
16193SOL    HW250021   4.971   5.691   0.435  0.3797  0.6053 -1.5002
16194SOL     OW50022   7.581   0.443   1.978  0.8539  0.1636 -0.3957
16194SOL    HW150023   7.535   0.487   2.049  2.6738  0.0569  0.9096
16194SOL    HW250024   7.648   0.505   1.951  1.2140 -0.4494 -0.9246
16195SOL     OW50025   6.257   7.032   2.941 -0.1939  0.0964 -0.1178
16195SOL    HW150026   6.264   7.126   2.925  0.4512 -0.1636 -1.5297
16195SOL    HW250027   6.312   7.017   3.017 -1.5593  1.0735  1.1170
16196SOL     OW50028   4.673   7.869   2.247 -0.4405  0.0353 -1.0763
16196SOL    HW150029   4.580   7.855   2.266 -0.3610 -0.1699 -0.8210
16196SOL    HW250030   4.686   7.963   2.259  0.0331 -0.3115  1.9916
16197SOL     OW50031   5.885   7.033   1.237  0.4200 -0.3765 -0.4462
16197SOL    HW150032   5.850   7.120   1.220  0.1046 -0.7701 -1.9625
16197SOL    HW250033   5.897   7.030   1.332 -0.7363  0.8646 -0.2298
16198SOL     OW50034   5.222   6.823   2.087  0.3234  0.8982 -0.7213
16198SOL    HW150035   5.274   6.777   2.153  1.3424 -0.2063 -2.2590
16198SOL    HW250036   5.249   6.785   2.004  0.0061  3.1673 -1.9182
16199SOL     OW50037   4.063   3.952   2.319 -0.1748 -0.5815  0.3683
16199SOL    HW150038   4.008   3.992   2.386 -0.4753  0.0526 -0.2364
16199SOL    HW250039   4.074   4.021   2.253  1.3708 -0.6852  0.4823
16200SOL     OW50040   4.633   1.265   3.636 -0.4581  0.4674  0.1507
16200SOL    HW150041   4.634   1.316   3.555 -0.4284 -1.0580 -0.8417
16200SOL    HW250042   4.591   1.183   3.612  0.4875 -0.4292  1.4383
16201SOL     OW50043   4.311   5.427   3.236  0.1266  0.1606  0.6001
16201SOL    HW150044   4.281   5.344   3.274 -1.8375  1.3090  1.7977
16201SOL    HW250045   4.345   5.476   3.311  0.7078  0.6541  0.0203
16202SOL     OW50046   4.600   6.486   0.874 -0.2655 -0.0044 -0.1520
16202SOL    HW150047   4.596   6.391   0.863 -1.2964  0.0174 -0.0766
16202SOL    HW250048   4.626   6.519   0.788  1.7969 -0.4311  0.2439
16203SOL     OW50049   4.004   6.004   1.846  0.2101 -0.3085  0.1049
16203SOL    HW150050   3.981   6.075   1.906  3.2082  0.9101 -0.0070
16203SOL    HW250051   4.024   6.048   1.763  1.6402 -1.2887 -0.1148
16204SOL     OW50052   6.006   6.206   1.130  0.2871  0.1701  0.0705
16204SOL    HW150053   5.954   6.282   1.156  1.1250  1.3235 -1.4467
16204SOL    HW250054   5.941   6.141   1.103 -0.4414  0.3290  1.3748
16205SOL     OW50055   4.408   0.117   2.040  0.3228 -0.0127 -0.2722
16205SOL    HW150056   4.442   0.139   2.127 -0.4185  1.1400 -0.2604
16205SOL    HW250057   4.484   0.081   1.994  0.7739 -0.4615  0.7773
16206SOL     OW50058   7.090   7.552   3.614  0.1793 -0.1061  0.2526
16206SOL    HW150059   7.065   7.644   3.613 -0.5313 -0.2922 -1.3101
16206SOL    HW250060   7.018   7.508   3.661 -1.4628 -0.3278 -2.2665
16207SOL     OW50061   5.778   7.331   1.837  1.0839 -0.5397  0.1105
16207SOL    HW150062   5.763   7.423   1.859  3.1360  0.0671 -0.7321
16207SOL    HW250063   5.831   7.334   1.757  3.1176 -2.3670  1.2760
16208SOL     OW50064   5.112   6.818   1.671  0.4911  0.0025  0.4761
16208SOL    HW150065   5.193   6.845   1.714 -0.6241  1.1249  1.9523
16208SOL    HW250066   5.139   6.798   1.581  2.4954 -0.2394  1.0807
16209SOL     OW50067   6.213   5.129   2.553 -0.2201 -0.5884 -0.6232
16209SOL    HW150068   6.288   5.187   2.544 -0.6869  0.4136  1.3535
16209SOL    HW250069   6.149   5.163   2.490 -0.8087  1.6824  1.0655
16210SOL     OW50070   2.997   6.901   2.035 -0.4278  0.0589 -0.0835
16210SOL    HW150071   3.050   6.882   1.957  0.4736 -1.6333  0.8936
16210SOL    HW250072   2.933   6.831   2.039  0.1540 -0.4273  1.2106
16211SOL     OW50073   5.648   0.144   1.743 -0.0357 -0.3100  0.5659
16211SOL    HW150074   5.591   0.216   1.712 -0.9653 -1.5530 -0.7470
16211SOL    HW250075   5.629   0.138   1.837 -1.5428 -0.2044  0.3000
16212SOL     OW50076   4.815   5.697   3.031 -0.0214  0.2255 -0.6204
16212SOL    HW150077   4.747   5.736   2.976  0.3555  0.9295 -0.6002
16212SOL    HW250078   4.770   5.627   3.078 -1.1415  1.6977  0.5904
16213SOL     OW50079   4.947   6.456   3.626  0.0893 -0.1871 -0.1059
16213SOL    HW150080   4.902   6.372   3.615  0.4110 -0.2349 -1.2230
16213SOL    HW250081   4.931   6.503   3.544  1.6766 -0.0315 -0.3560
16214SOL     OW50082   2.598   6.348   4.531 -0.6804 -0.1155  0.0702
16214SOL    HW150083   2.618   6.360   4.438  0.8288 -0.2340  0.3478
16214SOL    HW250084   2.541   6.422   4.553  1.5396  1.8240 -0.2389
16215SOL     OW50085   4.283   5.639   4.857 -0.5676  0.0616  0.1277
16215SOL    HW150086   4.205   5.690   4.878 -2.0023 -1.3685 -1.4866
16215SOL    HW250087   4.278   5.624   4.763  1.9119  0.2877 -0.1101
16216SOL     OW50088   4.684   0.102   3.212 -0.1274  0.3272  0.2107
16216SOL    HW150089   4.748   0.082   3.144  0.2539  1.0946  0.3327
16216SOL    HW250090   4.736   0.113   3.291 -0.4778  0.3122  0.4426
16217SOL     OW50091   0.177   7.570   4.241  0.0283  0.0077 -0.2072
16217SOL    HW150092   0.163   7.557   4.147  0.5391  1.5667 -0.5231
16217SOL    HW250093   0.195   7.663   4.250 -1.3780  0.1566  1.6290
16218SOL     OW50094   4.534   6.703   2.824 -0.9484 -0.4137 -0.1337
16218SOL    HW150095   4.478   6.629   2.847 -0.7073 -1.0859 -1.6198
16218SOL    HW250096   4.595   6.668   2.759  0.7533  0.4753  0.8984
16219SOL     OW50097   5.512   5.608   4.364 -0.0593 -0.3205 -0.5132
16219SOL    HW150098   5.545   5.645   4.282  2.1304 -3.3334 -1.1885
16219SOL    HW250099   5.434   5.558   4.338 -1.1973  1.1820 -0.1344
16220SOL     OW50100   4.720   6.907   5.071 -0.1009  0.2320  0.4247
16220SOL    HW150101   4.701   6.947   4.987 -2.5980 -1.2551  0.1585
16220SOL    HW250102   4.737   6.980   5.130 -2.5918  1.6394 -0.4507
16221SOL     OW50103   5.552   6.490   5.015 -0.3345 -0.3068  0.1695
16221SOL    HW150104   5.622   6.448   4.965 -0.6775 -1.3033  0.5107
16221SOL    HW250105   5.521   6.423   5.075 -1.2096  0.2958  0.4174
16222SOL     OW50106   4.314   0.431   6.455 -0.1309 -0.4568 -0.4824
16222SOL    HW150107   4.406   0.452   6.441  0.0357 -0.1108  0.8905
16222SOL    HW250108   4.278   0.512   6.493 -1.0808 -0.4836 -1.2923
16223SOL     OW50109   5.195   6.790   5.352  0.8447 -0.4469  0.0260
16223SOL    HW150110   5.273   6.824   5.396  0.8398 -2.5717  1.8358
16223SOL    HW250111   5.225   6.711   5.308  0.6158  1.0571 -3.1500
16224SOL     OW50112   4.690   7.078   6.748 -0.2530  0.7003  0.2564
16224SOL    HW150113   4.713   7.087   6.841  1.0194  0.9489 -0.0649
16224SOL    HW250114   4.611   7.025   6.748  0.4238 -0.3593  1.4388
16225SOL     OW50115   5.004   7.317   4.125 -0.1768 -0.4833 -0.4199
16225SOL    HW150116   4.993   7.247   4.062 -1.2790 -2.1205  1.4754
16225SOL    HW250117   5.095   7.309   4.154 -0.8925 -2.8000  1.5150
16226SOL     OW50118   5.942   4.932   4.611 -0.1555 -1.0652  0.3089
16226SOL    HW150119   5.977   4.974   4.533 -1.1842 -1.6448 -0.4834
16226SOL    HW250120   6.010   4.945   4.678  1.5146 -2.0358 -1.1188
16227SOL     OW50121   4.170   7.696   6.191 -0.4402 -0.1940  0.1596
16227SOL    HW150122   4.096   7.739   6.147  0.4133  1.2226  0.0562
16227SOL    HW250123   4.131   7.619   6.232 -2.1088  0.7873  0.5587
16228SOL     OW50124   5.431   7.862   5.148 -0.4498 -0.0186 -0.7079
16228SOL    HW150125   5.374   7.807   5.201 -0.7311  1.1074  0.1968
16228SOL    HW250126   5.519   7.835   5.172 -0.5439  1.0134  1.0145
16229SOL     OW50127   3.582   7.285   4.280 -0.4201  0.0396 -0.2795
16229SOL    HW150128   3.572   7.313   4.372 -2.0082  1.0711 -0.7343
16229SOL    HW250129   3.548   7.358   4.229  0.5666 -0.4666 -1.7318
16230SOL     OW50130   6.095   6.815   2.891 -0.7132  0.2114  0.3262
16230SOL    HW150131   6.133   6.760   2.960 -1.0376  0.2040  0.5054
16230SOL    HW250132   6.130   6.902   2.907  2.0805 -0.4088 -1.6449
16231SOL     OW50133   3.378   0.169   4.100  0.1006  0.1181  0.1544
16231SOL    HW150134   3.325   0.224   4.042 -0.7389 -2.1434 -1.3317
16231SOL    HW250135   3.324   0.160   4.179  0.0360  0.9980  0.2232
16232SOL     OW50136   4.440   6.360   3.098 -0.3828 -0.2439 -0.3176
16232SOL    HW150137   4.458   6.434   3.156  0.0128 -0.0908 -0.6313
16232SOL    HW250138   4.441   6.397   3.010 -1.0987 -0.4556 -0.4167
16233SOL     OW50139   6.448   7.064   3.967  0.1533  0.5876 -0.0774
16233SOL    HW150140   6.484   7.012   4.039 -1.1793  1.2249  1.0969
16233SOL    HW250141   6.470   7.014   3.888 -1.6993 -2.1765  1.0303
16234SOL     OW50142   5.326   5.472   4.214 -0.4377  0.3713  0.5218
16234SOL    HW150143   5.399   5.472   4.152  0.1382 -0.2454  1.1775
16234SOL    HW250144   5.258   5.422   4.171 -0.2164  0.3462  0.1966
16235SOL     OW50145   6.346   0.274   2.033 -0.9489 -0.5958  0.0183
16235SOL    HW150146   6.325   0.237   1.948  1.8205  0.4762 -1.2506
16235SOL    HW250147   6.346   0.369   2.019  1.9200 -0.4260  0.4597
16236SOL     OW50148   4.930   6.672   3.835  0.5067 -0.2142 -0.1486
16236SOL    HW150149   4.969   6.625   3.908  0.6640 -0.9549 -0.6950
16236SOL    HW250150   4.903   6.603   3.774 -2.9959  0.1126  0.8192
16237SOL     OW50151   5.855   0.707   3.303  0.5332  0.0228 -0.0918
16237SOL    HW150152   5.811   0.634   3.347 -0.1058  1.2296  1.3704
16237SOL    HW250153   5.910   0.745   3.372 -0.3028  1.8348 -0.3988
16238SOL     OW50154   5.703   6.254   4.041 -0.0301  0.2069  0.0250
16238SOL    HW150155   5.670   6.311   3.972 -0.4314 -1.4149 -1.1832
16238SOL    HW250156   5.754   6.187   3.995 -0.5649 -1.0973  1.2605
16239SOL     OW50157   5.403   6.304   4.075 -0.3700 -0.0014  0.0957
16239SOL    HW150158   5.311   6.278   4.078 -0.8928  1.6411 -0.5516
16239SOL    HW250159   5.451   6.221   4.075 -1.8824 -0.9271 -0.6759
16240SOL     OW50160   5.723   0.080   2.861 -0.0542  0.6398 -0.0844
16240SOL    HW150161   5.795   0.115   2.809  1.5082 -0.7837  1.0304
16240SOL    HW250162   5.723   0.134   2.941  0.8297 -0.3223  0.5959
16241SOL     OW50163   5.683   7.146   6.471 -0.1283 -0.0761  0.3172
16241SOL    HW150164   5.662   7.217   6.531 -0.4476 -0.6072  0.8505
16241SOL    HW250165   5.659   7.179   6.384 -0.3978  0.4093  0.5744
16242SOL     OW50166   5.427   5.745   4.588  0.2804 -0.6798 -0.2376
16242SOL    HW150167   5.377   5.820   4.555  1.3167 -0.8254 -2.2873
16242SOL    HW250168   5.472   5.710   4.511 -0.2969 -3.5543  0.5989
16243SOL     OW50169   4.729   7.457   5.596  0.3366  0.0367  0.2322
16243SOL    HW150170   4.650   7.461   5.649  0.0439  1.7990 -0.2840
16243SOL    HW250171   4.799   7.487   5.655  0.2251  0.7494  0.0046
16244SOL     OW50172   5.254   7.207   2.768  0.1732 -0.5007  0.0702
16244SOL    HW150173   5.265   7.270   2.697 -1.8278  0.7732  0.7956
16244SOL    HW250174   5.242   7.123   2.724 -0.7222  0.2137 -1.1243
16245SOL     OW50175   3.968   0.734   4.318 -0.5875  0.7435  0.0218
16245SOL    HW150176   3.905   0.805   4.329  0.5305  1.9587 -1.1457
16245SOL    HW250177   3.921   0.668   4.266 -1.1176  1.3395 -0.2672
16246SOL     OW50178   4.623   6.215   5.771  0.1529 -0.5679 -0.0626
16246SOL    HW150179   4.649   6.130   5.807 -0.3355 -0.2589  1.0628
16246SOL    HW250180   4.640   6.208   5.677  0.6951 -1.6911  0.1076
16247SOL     OW50181   5.829   7.821   4.509 -0.7653  0.3690  0.2203
16247SOL    HW150182   5.770   7.867   4.567  0.1847  0.1112  1.4244
16247SOL    HW250183   5.908   7.806   4.561 -0.6358 -1.6537 -0.4718
16248SOL     OW50184   6.571   6.891   2.523  0.1381  0.3332  0.1526
16248SOL    HW150185   6.594   6.803   2.552 -1.2231  0.6452  2.4276
16248SOL    HW250186   6.479   6.885   2.498  0.6247  0.6632 -1.9119
16249SOL     OW50187   5.522   5.610   4.822  0.0663  0.0084  0.5065
16249SOL    HW150188   5.450   5.559   4.784 -2.1799  1.4467  2.5172
16249SOL    HW250189   5.499   5.701   4.803  2.3859  0.4684 -0.3824
16250SOL     OW50190   5.039   6.150   5.749  0.4297  0.2533  0.7653
16250SOL    HW150191   5.001   6.185   5.668  0.5084  1.2776  1.1552
16250SOL    HW250192   5.115   6.206   5.765  1.2757 -0.8605  0.7706
16251SOL     OW50193   5.259   6.779   3.697  0.0571  0.3372  0.3402
16251SOL    HW150194   5.292   6.701   3.653  0.7240  0.2154  1.0285
16251SOL    HW250195   5.287   6.852   3.642 -0.7280  0.1034 -0.4048
16252SOL     OW50196   3.689   6.195   4.093  0.4728 -0.2696 -0.2352
16252SOL    HW150197   3.630   6.256   4.137  1.2742  0.0905  0.3509
16252SOL    HW250198   3.725   6.244   4.019  0.6565 -0.2348 -0.1209
16253SOL     OW50199   5.938   5.459   2.893 -0.0456 -0.0484  0.0696
16253SOL    HW150200   5.881   5.416   2.958  1.5915  0.5638  2.0340
16253SOL    HW250201   6.015   5.402   2.889  0.0712  0.1744 -1.0451
16254SOL     OW50202   6.158   6.383   5.968  0.5852  1.0154 -0.1886
16254SOL    HW150203   6.098   6.374   5.894 -0.6860  0.8990  0.8134
16254SOL    HW250204   6.244   6.396   5.928 -0.3020  2.6567 -1.6812
16255SOL     OW50205   5.706   5.247   3.764  0.5233 -0.3061 -0.6805
16255SOL    HW150206   5.702   5.168   3.819 -0.3998  0.4681  0.4323
16255SOL    HW250207   5.614   5.269   3.749  0.7586 -0.5300 -2.6466
16256SOL     OW50208   6.908   5.601   3.264  0.1980  0.2388  0.4028
16256SOL    HW150209   6.845   5.674   3.266  1.8697  1.7716 -0.3711
16256SOL    HW250210   6.993   5.642   3.277  1.0171 -1.8990  2.3726
16257SOL     OW50211   2.930   5.919   3.003  0.2308  0.0691 -0.4364
16257SOL    HW150212   2.902   5.986   3.066 -0.6487  0.3073 -1.0630
16257SOL    HW250213   2.969   5.968   2.931 -1.3101  0.0052 -1.3540
16258SOL     OW50214   3.707   6.898   6.450  0.6410 -0.1104 -0.4006
16258SOL    HW150215   3.743   6.941   6.373  0.6391 -0.2280 -0.4674
16258SOL    HW250216   3.703   6.967   6.516 -0.7683  0.3712 -0.9504
16259SOL     OW50217   3.239   5.351   3.250 -0.2402 -0.0223 -0.2163
16259SOL    HW150218   3.208   5.299   3.324 -0.0828  0.7514  0.4041
16259SOL    HW250219   3.253   5.438   3.286 -1.5390  0.7515 -1.4746
16260SOL     OW50220   5.610   6.516   5.694 -0.5689  0.7065  0.0452
16260SOL    HW150221   5.674   6.586   5.681  0.9382 -0.9972 -2.7722
16260SOL    HW250222   5.527   6.562   5.709  0.5481  3.0788 -0.5874
16261SOL     OW50223   5.041   0.086   5.181 -0.4690  0.5274 -0.5536
16261SOL    HW150224   5.008  -0.004   5.184  0.5502  0.0323 -2.4696
16261SOL    HW250225   5.006   0.121   5.099  0.7830  1.1846 -0.8307
16262SOL     OW50226   3.833   5.362   4.383 -0.0438 -0.2144  0.3245
16262SOL    HW150227   3.928   5.350   4.383  0.0641  0.3420  2.2983
16262SOL    HW250228   3.819   5.443   4.335  0.1936 -1.6130 -2.3359
16263SOL     OW50229   5.116   7.685   5.492 -0.4713 -0.3105  0.5934
16263SOL    HW150230   5.041   7.634   5.462 -0.4608 -1.0202  1.6957
16263SOL    HW250231   5.079   7.748   5.554 -0.1451 -0.8105  1.3128
16264SOL     OW50232   4.003   1.839   6.561 -0.0437 -0.4120  0.1342
16264SOL    HW150233   4.060   1.903   6.605  0.1871 -0.0697 -0.6392
16264SOL    HW250234   3.962   1.890   6.491 -1.8711 -0.4613  1.1157
16265SOL     OW50235   6.881   1.154   3.720 -0.1031 -0.4302 -0.5990
16265SOL    HW150236   6.906   1.246   3.727 -0.3181 -0.3877 -0.3750
16265SOL    HW250237   6.840   1.134   3.804 -0.8236 -0.4975 -0.9608
16266SOL     OW50238   5.595   0.628   4.762  0.1685  0.0400 -0.1694
16266SOL    HW150239   5.549   0.570   4.702  0.0753  0.3156 -0.3672
16266SOL    HW250240   5.526   0.675   4.809  0.2432 -0.0212  0.0025
16267SOL     OW50241   3.663   5.304   5.191  0.1683  0.2560 -0.0530
16267SOL    HW150242   3.660   5.208   5.192  1.8204  0.1313 -1.6760
16267SOL    HW250243   3.578   5.331   5.226 -1.6171 -1.8127 -2.4428
16268SOL     OW50244   5.715   6.785   5.842  0.0283  0.1359 -0.1465
16268SOL    HW150245   5.706   6.863   5.897  0.1279  0.4506 -0.5683
16268SOL    HW250246   5.642   6.728   5.868  2.6297 -1.9249  3.7774
16269SOL     OW50247   5.141   7.765   4.205 -0.0563  0.2003  0.0885
16269SOL    HW150248   5.168   7.684   4.246 -0.4046  0.2427  0.4109
16269SOL    HW250249   5.098   7.815   4.275  0.5421  0.8500  0.0081
16270SOL     OW50250   4.152   0.385   4.937 -0.1804  0.4755 -0.4710
16270SOL    HW150251   4.176   0.418   4.850 -0.2473  0.4560 -0.4973
16270SOL    HW250252   4.099   0.308   4.919 -0.7220  0.8318 -0.4230
16271SOL     OW50253   4.086   5.318   5.103  0.0534  0.7229  0.0768
16271SOL    HW150254   4.135   5.239   5.077 -0.0805 -0.1344  2.2403
16271SOL    HW250255   4.152   5.387   5.103  0.5457  0.2642 -0.2417
16272SOL     OW50256   5.073   6.962   4.575 -0.3226 -0.1802  0.5017
16272SOL    HW150257   5.012   6.931   4.642 -0.3893  1.0602  1.0553
16272SOL    HW250258   5.153   6.911   4.590 -1.1688 -1.7309 -0.1586
16273SOL     OW50259   3.969   7.848   4.905  0.1259 -0.2946 -0.2006
16273SOL    HW150260   3.877   7.829   4.886  0.2721  0.3155 -1.6848
16273SOL    HW250261   4.016   7.814   4.829  0.9534  0.7198 -0.1652
16274SOL     OW50262   5.919   5.792   3.665 -0.3087 -0.4425  0.6936
16274SOL    HW150263   5.924   5.823   3.755 -0.9159 -1.2687  1.0197
16274SOL    HW250264   6.002   5.819   3.626 -0.8581  1.7227  0.8968
16275SOL     OW50265   3.926   0.620   4.726 -0.2166 -0.3201  0.0446
16275SOL    HW150266   3.905   0.535   4.687 -0.2362 -0.0077 -0.6467
16275SOL    HW250267   3.853   0.639   4.785 -2.2184  0.9357 -2.6087
16276SOL     OW50268   3.922   5.298   3.737 -0.0437  0.1231 -0.0237
16276SOL    HW150269   3.853   5.232   3.749  0.8991 -0.8711  0.0748
16276SOL    HW250270   3.907   5.360   3.809 -1.0446  0.1267 -0.2141
16277SOL     OW50271   5.108   5.283   4.108  1.1418  0.0923  0.6224
16277SOL    HW150272   5.159   5.202   4.109  0.0131 -0.6588 -0.4033
16277SOL    HW250273   5.034   5.265   4.166 -0.9066 -0.8891 -2.1036
16278SOL     OW50274   5.719   5.264   3.406  0.1810 -0.4735  0.6499
16278SOL    HW150275   5.638   5.305   3.434  0.5934  0.2916  0.7541
16278SOL    HW250276   5.787   5.327   3.429  0.7129 -0.6529 -0.3521
16279SOL     OW50277   3.382   5.361   5.275 -0.6129  0.3678  0.1170
16279SOL    HW150278   3.290   5.343   5.295 -0.4097 -1.5605 -0.5185
16279SOL    HW250279   3.392   5.455   5.292 -3.1211  1.0230 -1.3908
16280SOL     OW50280   6.334   7.716   4.752 -0.4145 -0.0971 -0.0761
16280SOL    HW150281   6.414   7.664   4.739 -0.9190 -1.1978  1.0599
16280SOL    HW250282   6.352   7.768   4.830 -0.6318  0.0124 -0.0991
16281SOL     OW50283   2.071   6.143   5.036  0.1287 -0.3553  0.0959
16281SOL    HW150284   2.025   6.106   5.111 -1.5597  0.1859 -0.6322
16281SOL    HW250285   2.143   6.081   5.019 -1.0262 -1.8745  0.5421
16282SOL     OW50286   5.197   6.120   3.781  0.1896  0.0283 -0.5795
16282SOL    HW150287   5.198   6.213   3.802  3.0210  0.1240 -0.7565
16282SOL    HW250288   5.246   6.079   3.853 -0.9637 -1.3509 -0.5342
16283SOL     OW50289   5.972   7.160   5.649 -0.0237 -0.1412 -0.7176
16283SOL    HW150290   5.879   7.181   5.643 -0.3617 -1.1158  0.6980
16283SOL    HW250291   5.974   7.065   5.664  1.1692 -0.0091  0.0306
16284SOL     OW50292   6.678   5.960   2.900  0.1526 -0.3648 -0.1589
16284SOL    HW150293   6.602   5.971   2.957  0.1564  1.6760 -0.4599
16284SOL    HW250294   6.697   5.867   2.904 -0.8838 -0.5662  1.8243
16285SOL     OW50295   6.528   0.484   4.401 -0.0363  0.0526  0.5004
16285SOL    HW150296   6.580   0.426   4.457  0.2927 -0.8722 -0.7036
16285SOL    HW250297   6.439   0.447   4.405 -0.1041  0.2375  0.7316
16286SOL     OW50298   5.608   5.980   3.728 -0.2443  0.1457 -0.5129
16286SOL    HW150299   5.644   5.898   3.694 -2.3468 -1.3061  0.5660
16286SOL    HW250300   5.543   6.006   3.662 -0.7717  0.0239 -0.0466
16287SOL     OW50301   5.584   4.830   1.569 -0.0177  0.0202  0.2752
16287SOL    HW150302   5.646   4.840   1.496  0.6640  2.9166  1.1127
16287SOL    HW250303   5.498   4.837   1.528  0.2532 -1.0155 -0.5282
16288SOL     OW50304   6.316   4.430   4.100  0.4412  0.6547 -0.6343
16288SOL    HW150305   6.297   4.389   4.184  0.1760  0.9173 -0.5622
16288SOL    HW250306   6.231   4.434   4.056  0.5453  0.6926 -0.8355
16289SOL     OW50307   5.299   0.715   5.363  0.1454  0.5131  0.5991
16289SOL    HW150308   5.298   0.633   5.412 -1.5488  0.1845  0.0864
16289SOL    HW250309   5.386   0.718   5.324 -0.1753 -1.7515 -0.4744
16290SOL     OW50310   4.861   6.377   5.459 -0.1973  0.1912 -0.0656
16290SOL    HW150311   4.929   6.312   5.438  0.4482  0.5205  0.9644
16290SOL    HW250312   4.908   6.460   5.464 -0.8664  0.5963 -0.4363
16291SOL     OW50313   4.277   7.562   2.559  0.8224  0.4046  0.2528
16291SOL    HW150314   4.265   7.540   2.467 -3.2625  0.2269  0.6761
16291SOL    HW250315   4.269   7.658   2.562  2.3447  0.5515  0.3163
16292SOL     OW50316   4.923   7.005   3.256 -0.2275  0.1426  0.0008
16292SOL    HW150317   4.967   7.006   3.171 -0.4891  0.3021 -0.1347
16292SOL    HW250318   4.945   7.089   3.296 -0.3869  0.2133 -0.0577
16293SOL     OW50319   4.933   7.292   4.698  0.4220 -0.1297  0.3760
16293SOL    HW150320   4.913   7.244   4.617  0.0803 -0.3877  0.6080
16293SOL    HW250321   5.015   7.254   4.729  0.3514 -0.3002  0.3540
16294SOL     OW50322   5.353   6.332   4.502 -0.0731  0.3358  0.1360
16294SOL    HW150323   5.266   6.295   4.484  0.1831  0.0396 -0.5262
16294SOL    HW250324   5.402   6.259   4.541  0.3191  0.0619 -0.8347
16295SOL     OW50325   6.102   5.206   2.814  0.1015 -0.3132 -0.4073
16295SOL    HW150326   6.119   5.164   2.730 -1.4194 -1.1734 -0.3183
16295SOL    HW250327   6.025   5.161   2.848  0.0001  0.8046  0.9189
16296SOL     OW50328   6.328   5.463   3.778  0.1514  0.1996 -0.4458
16296SOL    HW150329   6.349   5.389   3.722 -1.2608 -1.3147  0.9076
16296SOL    HW250330   6.319   5.426   3.866 -0.0756  2.0605  0.3789
16297SOL     OW50331   5.257   7.377   5.141 -0.0751 -0.9902  0.3404
16297SOL    HW150332   5.164   7.355   5.138  0.1803 -2.0206 -0.2427
16297SOL    HW250333   5.293   7.320   5.209  0.3160 -1.3569 -0.1637
16298SOL     OW50334   6.111   5.881   3.481 -0.2129  0.4017  0.2349
16298SOL    HW150335   6.167   5.954   3.456  0.9349 -0.2838  0.7344
16298SOL    HW250336   6.046   5.876   3.411  1.0283  0.5065 -0.9700
16299SOL     OW50337   5.398   6.777   4.358 -0.1615 -0.1766  0.3763
16299SOL    HW150338   5.395   6.778   4.454 -0.6148 -2.1195  0.4243
16299SOL    HW250339   5.419   6.687   4.336 -1.1372 -0.0188 -1.3783
16300SOL     OW50340   4.719   6.632   5.086  0.0805 -0.2285  0.1465
16300SOL    HW150341   4.752   6.610   4.999  2.8918 -1.4925  1.3924
16300SOL    HW250342   4.687   6.721   5.077 -1.8553 -1.0769 -2.6573
16301SOL     OW50343   3.905   5.737   6.480 -0.4118  0.2501  0.1870
16301SOL    HW150344   3.814   5.728   6.509 -1.0705  5.3506  0.7249
16301SOL    HW250345   3.955   5.748   6.561  1.6060 -5.5851  0.1760
16302SOL     OW50346   5.668   6.720   1.780 -0.0293  0.2517 -0.3153
16302SOL    HW150347   5.721   6.645   1.754  0.2838  0.5979 -0.6892
16302SOL    HW250348   5.599   6.683   1.834 -0.2579 -0.3882 -1.0383
16303SOL     OW50349   4.444   5.637   3.751 -0.2344 -0.1178  0.5851
16303SOL    HW150350   4.417   5.545   3.745 -1.4875  0.3154 -1.6632
16303SOL    HW250351   4.539   5.635   3.741 -0.4569 -1.0604 -2.2150
16304SOL     OW50352   4.710   7.954   4.033 -0.2365 -0.4555  0.3968
16304SOL    HW150353   4.644   7.900   4.078  0.7512 -1.4194  0.7274
16304SOL    HW250354   4.684   8.044   4.053 -1.9265 -0.7820 -0.1671
16305SOL     OW50355   5.404   6.709   5.662  0.0139  0.1569  0.0939
16305SOL    HW150356   5.410   6.780   5.597 -0.3159 -0.1505 -0.2802
16305SOL    HW250357   5.362   6.750   5.737 -1.3098  0.0666 -0.5684
16306SOL     OW50358   6.129   7.514   6.020  0.2523  0.8086  0.1984
16306SOL    HW150359   6.038   7.498   6.043  0.4576  2.1335  2.1207
16306SOL    HW250360   6.137   7.480   5.931 -1.8750 -0.1286  0.3064
16307SOL     OW50361   4.842   6.954   6.188  0.2042  0.3980  0.0835
16307SOL    HW150362   4.936   6.943   6.205  0.0611  1.2272  1.5516
16307SOL    HW250363   4.802   6.952   6.274 -1.1781 -0.2144 -0.5457
16308SOL     OW50364   7.854   7.216   3.535  0.2162  0.1076  0.2230
16308SOL    HW150365   7.784   7.154   3.557  0.1740 -0.8437 -2.2777
16308SOL    HW250366   7.821   7.301   3.565 -1.5736 -0.4823  0.0444
16309SOL     OW50367   3.793   5.038   3.373 -0.7547 -0.0357  0.0511
16309SOL    HW150368   3.818   4.947   3.355 -2.1645 -0.4466  0.0591
16309SOL    HW250369   3.835   5.058   3.457 -0.6929 -0.7825  0.2048
16310SOL     OW50370   4.241   7.497   5.708 -0.3677  0.1998 -0.2970
16310SOL    HW150371   4.270   7.588   5.702 -0.0715  0.1626  0.4861
16310SOL    HW250372   4.182   7.486   5.633 -0.6950  1.1347 -0.1966
16311SOL     OW50373   6.620   6.964   4.165 -0.0173 -0.7991 -0.2797
16311SOL    HW150374   6.693   7.021   4.190  1.0344 -1.9934 -0.5173
16311SOL    HW250375   6.612   6.902   4.237 -0.6375 -0.8388 -0.3783
16312SOL     OW50376   4.728   6.768   4.696 -0.2583 -0.0660 -0.1570
16312SOL    HW150377   4.775   6.684   4.695  0.3541  0.2600  0.3699
16312SOL    HW250378   4.795   6.832   4.717 -1.0836  0.3213  1.4485
16313SOL     OW50379   5.134   4.545   4.042  0.4225 -0.0074  0.0340
16313SOL    HW150380   5.106   4.472   4.098  0.6668  0.2713  0.5209
16313SOL    HW250381   5.217   4.517   4.004 -0.0868 -0.4891 -0.7534
16314SOL     OW50382   2.720   6.587   7.200  0.2493 -0.0333 -0.2673
16314SOL    HW150383   2.628   6.606   7.216 -0.3165 -2.5220 -0.0771
16314SOL    HW250384   2.726   6.583   7.104  0.5280  1.5762 -0.3357
16315SOL     OW50385   6.418   6.720   3.983 -0.7564  0.3014  0.6177
16315SOL    HW150386   6.333   6.756   3.956 -2.2179 -1.3276  2.7289
16315SOL    HW250387   6.412   6.627   3.965  1.3053  0.3515 -0.7221
16316SOL     OW50388   4.608   6.090   6.098  0.2743 -0.2884 -0.1949
16316SOL    HW150389   4.617   5.995   6.100 -1.3051 -0.4919 -0.8866
16316SOL    HW250390   4.604   6.117   6.190 -0.5826 -1.0523 -0.0007
16317SOL     OW50391   4.918   1.395   2.735  0.5204  0.0793  0.0699
16317SOL    HW150392   4.830   1.373   2.765  0.4184 -1.0184 -0.9786
16317SOL    HW250393   4.952   1.455   2.802 -1.1693  0.8479  0.2825
16318SOL     OW50394   4.604   6.828   2.451 -0.2703  0.3097  0.3921
16318SOL    HW150395   4.627   6.905   2.504 -1.9086  1.5175 -0.5434
16318SOL    HW250396   4.523   6.795   2.491  0.4029 -0.9376  0.7594
16319SOL     OW50397   4.931   6.903   4.792 -0.3145 -0.0165 -0.1306
16319SOL    HW150398   4.950   6.853   4.871 -0.9103  0.1737  0.1411
16319SOL    HW250399   4.918   6.993   4.822  0.3692  0.2361 -0.5666
16320SOL     OW50400   5.296   7.964   4.913  0.5880  0.0855 -0.1011
16320SOL    HW150401   5.330   7.921   4.992  1.8984 -0.0129 -0.7019
16320SOL    HW250402   5.207   7.990   4.937  0.7132 -0.5742  1.1720
16321SOL     OW50403   3.941   6.316   5.119  0.0009  0.4994  0.8690
16321SOL    HW150404   3.856   6.289   5.085  0.4488 -0.8705  0.7536
16321SOL    HW250405   3.937   6.292   5.212 -0.4373  2.2534  1.3356
16322SOL     OW50406   7.987   5.907   5.409 -0.7735  0.3980  0.5536
16322SOL    HW150407   7.893   5.910   5.426 -0.4507  1.7406  2.3414
16322SOL    HW250408   8.028   5.901   5.495  0.7858 -0.9412 -0.2261
16323SOL     OW50409   5.422   5.330   3.743 -0.1956  0.4950 -0.3558
16323SOL    HW150410   5.337   5.327   3.786  0.7831 -2.0237  1.7082
16323SOL    HW250411   5.405   5.306   3.652 -1.8392  1.9075 -0.4766
16324SOL     OW50412   3.976   6.561   5.469  0.3846 -0.0209 -0.1558
16324SOL    HW150413   3.941   6.588   5.384  1.4931 -0.2867 -0.7147
16324SOL    HW250414   3.940   6.624   5.531  1.3784  1.6146 -1.1562
16325SOL     OW50415   3.497   7.289   4.802 -0.1070 -0.4925  0.0998
16325SOL    HW150416   3.440   7.345   4.855 -0.4173 -0.2507 -0.4916
16325SOL    HW250417   3.566   7.261   4.863 -0.7683 -0.6745  0.7847
16326SOL     OW50418   4.491   6.488   5.218  0.2246 -0.2222 -0.6620
16326SOL    HW150419   4.539   6.554   5.169  1.3898  1.9823  3.0231
16326SOL    HW250420   4.406   6.527   5.235  1.5098  1.4981  3.0718
16327SOL     OW50421   5.697   5.591   3.941  0.1839 -0.5926  0.0318
16327SOL    HW150422   5.658   5.587   3.854 -1.6350 -0.4363  0.8023
16327SOL    HW250423   5.696   5.500   3.971  1.4162 -0.7503 -0.3214
16328SOL     OW50424   3.678   6.109   5.579 -0.0958  0.5392  0.2586
16328SOL    HW150425   3.597   6.105   5.527  0.6552  1.6011 -1.0854
16328SOL    HW250426   3.713   6.020   5.575 -0.7167  0.2935  0.0481
16329SOL     OW50427   4.031   6.345   6.678  0.2403  0.3878  0.0666
16329SOL    HW150428   3.988   6.413   6.730 -0.7864 -0.0860 -0.1210
16329SOL    HW250429   4.098   6.391   6.628 -0.6561  1.3238 -0.3095
16330SOL     OW50430   3.346   5.810   4.556  0.2017  0.2204 -0.4848
16330SOL    HW150431   3.290   5.779   4.484  1.2040 -2.1187 -0.3086
16330SOL    HW250432   3.287   5.819   4.630 -0.0890 -1.6148 -0.4662
16331SOL     OW50433   4.991   7.299   5.089  0.1241 -0.3782 -0.4846
16331SOL    HW150434   4.961   7.369   5.031  0.1675  1.7319  1.8958
16331SOL    HW250435   4.911   7.262   5.126  0.1771  0.1681  0.1899
16332SOL     OW50436   5.540   4.848   3.666 -0.0545  0.0592 -0.0350
16332SOL    HW150437   5.452   4.885   3.671  0.0507  0.3194 -0.0838
16332SOL    HW250438   5.582   4.895   3.593  0.2541  0.2179  0.2430
16333SOL     OW50439   0.161   7.501   3.989 -0.0021  0.0012  0.1199
16333SOL    HW150440   0.207   7.417   3.981  0.3357  0.2944 -1.3098
16333SOL    HW250441   0.082   7.489   3.937  0.3005  0.7246 -0.5248
16334SOL     OW50442   6.846   7.203   4.698 -0.2990  0.8071 -0.7963
16334SOL    HW150443   6.796   7.225   4.620 -1.2109  0.4222 -0.3339
16334SOL    HW250444   6.785   7.154   4.753  1.0452 -1.1157 -0.9062
16335SOL     OW50445   4.752   6.530   5.792  0.0058 -0.4079 -0.0275
16335SOL    HW150446   4.738   6.575   5.709 -0.5886  0.3011  0.4477
16335SOL    HW250447   4.715   6.443   5.778  0.5659 -0.5407 -0.7378
16336SOL     OW50448   5.503   6.339   7.219 -0.4624 -0.0832 -0.1496
16336SOL    HW150449   5.480   6.344   7.126  0.4860 -0.9631 -0.4436
16336SOL    HW250450   5.454   6.411   7.259 -1.5018 -0.1677 -1.1931
16337SOL     OW50451   3.848   6.698   5.659 -0.2773 -0.3611 -0.3636
16337SOL    HW150452   3.763   6.736   5.639  0.3180  0.2855 -1.7678
16337SOL    HW250453   3.863   6.720   5.751 -1.2778  0.1742 -0.3218
16338SOL     OW50454   5.622   7.258   4.329  0.4459  0.2072 -0.5888
16338SOL    HW150455   5.714   7.235   4.317  0.7988  1.5304 -0.5491
16338SOL    HW250456   5.576   7.174   4.330  1.3636 -0.3989 -2.8825
16339SOL     OW50457   6.485   7.293   4.137 -0.2937 -0.3099 -0.2222
16339SOL    HW150458   6.496   7.222   4.074  0.4122 -0.4132  0.0083
16339SOL    HW250459   6.417   7.263   4.197  0.0323 -0.8132 -0.1021
16340SOL     OW50460   3.697   7.653   4.825  0.4206 -0.6426 -0.1012
16340SOL    HW150461   3.705   7.601   4.745  0.0917  0.2836 -0.7543
16340SOL    HW250462   3.654   7.734   4.797  0.1712 -0.3574  1.0404
16341SOL     OW50463   5.001   6.857   4.267  0.3738  1.2089 -0.3728
16341SOL    HW150464   4.917   6.900   4.249  0.5018  0.9851 -1.6303
16341SOL    HW250465   4.994   6.827   4.357 -0.7387  1.5592 -0.3279
16342SOL     OW50466   6.179   5.436   4.935 -0.1666 -0.1885  0.0560
16342SOL    HW150467   6.135   5.351   4.929  1.7604 -1.2389 -0.0087
16342SOL    HW250468   6.169   5.475   4.848  0.3259 -1.0991 -0.4263
16343SOL     OW50469   4.600   7.517   6.205  0.1391  0.2094  0.1343
16343SOL    HW150470   4.598   7.425   6.179  0.8333  0.6609 -1.6463
16343SOL    HW250471   4.557   7.518   6.291 -0.0561 -1.7317  0.1139
16344SOL     OW50472   4.246   7.719   2.860  0.2053 -0.6447 -0.0912
16344SOL    HW150473   4.256   7.793   2.800  0.6584  0.4541  1.2753
16344SOL    HW250474   4.314   7.733   2.926 -0.0413 -2.0102  0.4787
16345SOL     OW50475   3.080   7.603   2.110  0.3322  0.0791 -0.1235
16345SOL    HW150476   3.132   7.673   2.150  0.8389 -0.4899  0.2240
16345SOL    HW250477   2.989   7.631   2.123  0.5243  0.6273  0.0922
16346SOL     OW50478   5.313   5.977   4.259  0.4206 -0.0809  0.0805
16346SOL    HW150479   5.265   6.051   4.222  2.0119  0.2270 -1.4884
16346SOL    HW250480   5.259   5.901   4.238 -0.0550  0.3780 -0.4170
16347SOL     OW50481   4.514   5.435   5.633  0.1349 -0.2231  0.1924
16347SOL    HW150482   4.530   5.356   5.685 -0.3894 -0.2255  0.3591
16347SOL    HW250483   4.600   5.459   5.599 -0.0513 -2.3267 -2.0002
16348SOL     OW50484   3.734   5.842   5.953 -0.1837  0.1404 -0.4232
16348SOL    HW150485   3.677   5.817   6.026 -0.2576 -0.5077 -0.6926
16348SOL    HW250486   3.684   5.816   5.875 -0.1491  0.9128 -0.7137
16349SOL     OW50487   3.101   6.831   3.925 -0.1471 -0.7424 -0.4443
16349SOL    HW150488   3.142   6.886   3.859 -0.5243 -0.7730 -0.7039
16349SOL    HW250489   3.164   6.829   3.997  0.2529 -0.6921 -0.7910
16350SOL     OW50490   0.537   7.636   5.539 -0.2484 -0.0508  0.1328
16350SOL    HW150491   0.543   7.731   5.532 -1.6852  0.0511 -0.0380
16350SOL    HW250492   0.525   7.619   5.633  2.0977 -0.2453  0.4585
16351SOL     OW50493   5.278   4.800   3.314 -0.2519  0.2200 -0.5349
16351SOL    HW150494   5.373   4.815   3.313 -0.0990 -0.6626 -1.4849
16351SOL    HW250495   5.265   4.733   3.381 -0.3622  1.1400  0.3924
16352SOL     OW50496   5.631   6.198   4.316 -0.1909 -0.2443 -0.5726
16352SOL    HW150497   5.626   6.103   4.311 -3.0205 -0.1579 -1.2004
16352SOL    HW250498   5.665   6.225   4.231 -4.1939 -0.6167 -2.4956
16353SOL     OW50499   5.070   6.635   4.484  0.3425  0.1830  0.0457
16353SOL    HW150500   5.029   6.613   4.568  1.7203  0.4973  0.8461
16353SOL    HW250501   5.093   6.727   4.493 -0.5574  0.5489 -1.1693
16354SOL     OW50502   5.445   6.226   3.701 -0.1351  0.1771 -0.4042
16354SOL    HW150503   5.352   6.250   3.699 -1.6159 -4.5147 -1.2531
16354SOL    HW250504   5.467   6.220   3.794 -0.5855  1.4678 -0.1966
16355SOL     OW50505   5.449   7.866   4.716 -0.0500 -0.4251 -0.5977
16355SOL    HW150506   5.394   7.875   4.794 -1.3228 -1.4503 -1.3257
16355SOL    HW250507   5.386   7.854   4.644  1.0451 -4.2503 -1.1576
16356SOL     OW50508   3.892   5.318   5.326  0.0475 -0.0014 -0.3510
16356SOL    HW150509   3.799   5.314   5.303 -0.4741 -1.7503  1.7853
16356SOL    HW250510   3.937   5.322   5.242 -1.8622 -1.5432 -1.5278
16357SOL     OW50511   4.595   5.845   5.726 -0.4082  0.4632  0.5853
16357SOL    HW150512   4.664   5.887   5.674 -0.7193 -1.7070 -1.8252
16357SOL    HW250513   4.636   5.765   5.759 -1.0714  0.4071  1.3103
16358SOL     OW50514   5.102   7.140   4.354  0.1775  0.1440  0.1664
16358SOL    HW150515   5.195   7.137   4.332  0.7682 -3.0487  2.2990
16358SOL    HW250516   5.093   7.075   4.424 -3.3237  1.8350  1.4791
16359SOL     OW50517   6.295   7.376   3.603 -0.0648  1.0174  0.4668
16359SOL    HW150518   6.373   7.333   3.567 -0.9500 -1.2439  1.0998
16359SOL    HW250519   6.295   7.352   3.695 -1.1028  1.6442  0.6430
16360SOL     OW50520   6.562   1.384   3.572 -0.3965  0.7206  0.1864
16360SOL    HW150521   6.537   1.384   3.664  1.3446  0.8585  0.6936
16360SOL    HW250522   6.483   1.410   3.526 -1.1138  1.3518  1.7012
16361SOL     OW50523   7.059   7.407   3.360 -0.0157 -0.3718 -0.0572
16361SOL    HW150524   7.085   7.496   3.385  2.2579 -0.7711 -0.7596
16361SOL    HW250525   7.069   7.356   3.441 -1.3183 -0.0222  0.3455
16362SOL     OW50526   5.360   6.535   3.573  0.2788 -0.1340 -0.1019
16362SOL    HW150527   5.326   6.472   3.637 -1.1040  0.0244 -0.6361
16362SOL    HW250528   5.301   6.527   3.498 -0.1481  2.0064 -0.0631
16363SOL     OW50529   4.406   5.920   5.264  0.0559 -0.0663 -0.0344
16363SOL    HW150530   4.330   5.909   5.206 -0.0158 -1.4714  0.2842
16363SOL    HW250531   4.418   6.015   5.271 -0.4578  0.1386 -1.6477
16364SOL     OW50532   5.971   7.219   2.660 -0.1852 -0.0460  0.1535
16364SOL    HW150533   6.036   7.263   2.715 -0.5161  0.8288 -0.1512
16364SOL    HW250534   6.023   7.170   2.596  0.1766  0.1406  0.3052
16365SOL     OW50535   5.482   6.755   4.924 -0.2214 -0.0213  0.2332
16365SOL    HW150536   5.493   6.660   4.926 -3.2575 -0.5079 -0.7943
16365SOL    HW250537   5.527   6.783   4.844  1.5056 -0.3903  1.0271
16366SOL     OW50538   3.843   7.037   7.327 -0.2278 -0.2686 -0.7094
16366SOL    HW150539   3.770   6.975   7.317 -0.9970  0.6325 -0.8168
16366SOL    HW250540   3.907   7.008   7.262 -0.7833 -0.6589 -1.1026
16367SOL     OW50541   5.965   6.416   3.829  0.3029  0.5717 -0.1909
16367SOL    HW150542   6.006   6.445   3.911 -0.5798  1.1614  0.0572
16367SOL    HW250543   5.948   6.323   3.842  0.4282  0.6009  0.1850
16368SOL     OW50544   5.658   5.605   6.270 -0.0253  0.5927  0.1280
16368SOL    HW150545   5.750   5.612   6.295  0.0940  1.9416 -0.6213
16368SOL    HW250546   5.652   5.519   6.228  0.5490 -0.1387  1.4761
16369SOL     OW50547   6.692   7.129   3.675 -0.1702 -0.5183  0.4408
16369SOL    HW150548   6.638   7.052   3.692 -0.5446 -0.2175  0.6401
16369SOL    HW250549   6.780   7.095   3.665 -0.2139 -0.9096  1.2557
16370SOL     OW50550   6.309   0.136   4.584 -0.1068  0.5561 -0.1075
16370SOL    HW150551   6.346   0.167   4.667 -0.9376 -0.8217  0.8056
16370SOL    HW250552   6.385   0.103   4.535  0.4401  1.7250 -0.0817
16371SOL     OW50553   4.886   5.615   5.226  0.0204  0.0681 -0.4510
16371SOL    HW150554   4.797   5.649   5.235  0.7195  1.6953  0.9017
16371SOL    HW250555   4.876   5.534   5.175 -2.1064  0.6598 -1.0715
16372SOL     OW50556   5.242   6.499   3.330  0.6743  0.4616 -0.5805
16372SOL    HW150557   5.247   6.539   3.244  1.1383 -0.3941 -0.9687
16372SOL    HW250558   5.253   6.405   3.314  1.0940  0.3160  0.4299
16373SOL     OW50559   5.029   6.649   6.052  0.6191 -0.4536 -0.4352
16373SOL    HW150560   5.114   6.644   6.009 -0.1533 -0.3700 -2.0539
16373SOL    HW250561   4.979   6.712   5.999  0.1286  0.9257  1.5552
16374SOL     OW50562   5.802   5.824   6.599  0.4694 -0.1999 -0.6362
16374SOL    HW150563   5.834   5.904   6.642  0.9935 -0.4690 -0.5280
16374SOL    HW250564   5.749   5.781   6.666 -0.1865  0.2724 -0.8339
16375SOL     OW50565   4.121   5.285   4.424  0.1520 -0.2602  0.1636
16375SOL    HW150566   4.169   5.203   4.432  1.0158  0.2352  0.1490
16375SOL    HW250567   4.119   5.320   4.514  0.4413  0.0598  0.0493
16376SOL     OW50568   5.442   0.088   3.337  0.6339 -0.1816 -0.4531
16376SOL    HW150569   5.352   0.061   3.322  0.8338 -0.1133 -1.8972
16376SOL    HW250570   5.494   0.008   3.326  0.8749  0.0497 -1.0608
16377SOL     OW50571   4.404   6.795   3.112 -0.4738 -0.1136 -0.7633
16377SOL    HW150572   4.377   6.704   3.103 -0.4432 -0.1264 -0.7250
16377SOL    HW250573   4.376   6.820   3.200  1.3053 -0.6976  0.0204
16378SOL     OW50574   4.775   6.003   4.661 -0.1083  0.9180  0.2181
16378SOL    HW150575   4.695   5.967   4.699  1.4441 -0.8827  1.9871
16378SOL    HW250576   4.840   5.997   4.731  1.8116  1.5538 -1.4118
16379SOL     OW50577   6.232   4.847   4.648  0.2701 -0.5022 -0.1871
16379SOL    HW150578   6.189   4.827   4.565 -1.6661  1.8398  0.1685
16379SOL    HW250579   6.245   4.942   4.647  4.8851 -0.8790  0.1022
16380SOL     OW50580   5.522   5.466   3.164 -0.0802  0.2263 -0.3754
16380SOL    HW150581   5.436   5.445   3.127 -0.4454 -0.1236  0.6359
16380SOL    HW250582   5.533   5.404   3.235  0.8222  0.5635 -0.2091
16381SOL     OW50583   4.967   7.817   4.748  0.0221  0.5640  0.6022
16381SOL    HW150584   5.019   7.838   4.826  0.8640 -0.1203  0.2478
16381SOL    HW250585   4.965   7.898   4.698  3.4573 -0.0648 -0.8852
16382SOL     OW50586   5.385   5.125   3.049 -0.4383 -0.5322 -0.0038
16382SOL    HW150587   5.470   5.139   3.091  0.6473  1.8345 -2.6903
16382SOL    HW250588   5.406   5.086   2.964 -2.0589  0.0318 -0.7033
16383SOL     OW50589   4.294   6.447   4.639  0.0170 -0.2625  0.2185
16383SOL    HW150590   4.384   6.429   4.669  1.2065  0.7158 -2.4423
16383SOL    HW250591   4.281   6.539   4.659  0.2586  0.0141 -0.8483
16384SOL     OW50592   3.401   7.304   6.901 -0.0108 -0.0316  0.1041
16384SOL    HW150593   3.382   7.297   6.808  0.2663 -2.4648  0.1558
16384SOL    HW250594   3.488   7.345   6.905  0.4489 -0.8743 -0.7828
16385SOL     OW50595   4.791   5.025   5.805 -0.0998 -0.5119 -0.5464
16385SOL    HW150596   4.712   4.993   5.848  0.9166 -0.9806  1.0680
16385SOL    HW250597   4.831   4.946   5.767  1.1176 -0.8334  1.2782
16386SOL     OW50598   4.503   5.493   4.100  0.2249 -0.1980 -0.2693
16386SOL    HW150599   4.467   5.415   4.059 -0.4554 -1.0048  1.7284
16386SOL    HW250600   4.433   5.559   4.092  0.3679 -0.1227 -0.9724
16387SOL     OW50601   4.449   5.873   4.128 -0.1512  0.2833  0.6897
16387SOL    HW150602   4.458   5.965   4.155  0.8573  1.0707 -2.0366
16387SOL    HW250603   4.529   5.855   4.079 -1.9420 -0.8572 -2.0380
16388SOL     OW50604   3.747   6.809   3.249 -0.2074  0.0105  0.4553
16388SOL    HW150605   3.793   6.882   3.292 -1.2388  1.8375 -1.3855
16388SOL    HW250606   3.792   6.800   3.165  0.5940 -2.2786  1.0547
16389SOL     OW50607   5.892   7.652   5.718 -0.0965 -0.5076  0.1628
16389SOL    HW150608   5.921   7.631   5.630  1.8928  0.4430  0.5384
16389SOL    HW250609   5.950   7.723   5.746 -2.0696  0.6820  1.4542
16390SOL     OW50610   4.615   7.243   6.147  0.3307 -0.4695 -0.3948
16390SOL    HW150611   4.655   7.252   6.060  2.5116 -2.0601  0.3559
16390SOL    HW250612   4.616   7.149   6.165 -0.3600 -0.2040  1.2540
16391SOL     OW50613   5.262   5.878   4.837 -0.5757 -0.0844  0.0547
16391SOL    HW150614   5.252   5.848   4.747 -2.1984  2.0947 -0.6030
16391SOL    HW250615   5.353   5.861   4.859 -0.6326 -2.4832 -1.2542
16392SOL     OW50616   3.496   6.581   4.604 -0.6660 -0.0016  0.2935
16392SOL    HW150617   3.583   6.620   4.611  0.0852 -0.6193 -3.2932
16392SOL    HW250618   3.491   6.520   4.677  1.5706  0.6587  1.0906
16393SOL     OW50619   5.354   7.294   5.787  0.2884 -0.3613 -0.4694
16393SOL    HW150620   5.340   7.355   5.715  1.4630 -0.8323 -1.1156
16393SOL    HW250621   5.418   7.231   5.754 -0.3876 -1.5647  0.4167
16394SOL     OW50622   3.470   0.431   6.516 -0.5909 -0.0424 -0.1945
16394SOL    HW150623   3.555   0.401   6.482 -0.2594 -0.8699  1.2765
16394SOL    HW250624   3.487   0.520   6.547 -0.6952  0.4124 -1.3761
16395SOL     OW50625   5.989   4.930   3.511 -0.2804  0.2040  0.2166
16395SOL    HW150626   6.078   4.938   3.477  0.1004 -0.3962  1.0228
16395SOL    HW250627   5.964   5.019   3.535 -0.2545  0.5147 -0.8638
16396SOL     OW50628   5.157   4.726   2.625 -0.5418 -0.4425 -0.6987
16396SOL    HW150629   5.186   4.795   2.566  3.8153 -1.3452  0.0561
16396SOL    HW250630   5.166   4.763   2.713 -2.4566 -0.6545 -0.3504
16397SOL     OW50631   6.194   6.636   3.090 -0.3188 -0.4721 -0.0944
16397SOL    HW150632   6.239   6.609   3.171  0.4738 -0.0079 -0.3769
16397SOL    HW250633   6.155   6.555   3.057 -2.6240 -0.3450  1.9201
16398SOL     OW50634   5.122   6.723   4.997  0.0660  0.3070  0.6188
16398SOL    HW150635   5.195   6.661   4.999 -0.3797 -0.2946 -0.6258
16398SOL    HW250636   5.058   6.685   5.057  0.4069  0.3614  1.0237
16399SOL     OW50637   5.526   0.364   4.327  0.3796 -0.5161  0.0169
16399SOL    HW150638   5.579   0.391   4.252  0.5491  0.4717  0.4807
16399SOL    HW250639   5.444   0.333   4.288 -0.2496  1.6684 -0.5246
16400SOL     OW50640   6.155   6.756   3.888  0.0765  0.8056  0.5393
16400SOL    HW150641   6.164   6.691   3.819  0.6535  2.2765 -0.8356
16400SOL    HW250642   6.078   6.728   3.938 -0.7347  0.0471 -1.0723
16401SOL     OW50643   3.819   5.860   5.600  0.0371  0.0475  0.3164
16401SOL    HW150644   3.769   5.827   5.675  1.1760  0.4590  1.2797
16401SOL    HW250645   3.809   5.792   5.534  0.0660 -0.9401  1.2947
16402SOL     OW50646   4.548   6.142   3.831 -0.7247 -0.8312 -0.2095
16402SOL    HW150647   4.456   6.136   3.806 -0.3347 -3.3583 -1.3344
16402SOL    HW250648   4.594   6.164   3.749 -0.2867  0.6326  0.3824
16403SOL     OW50649   5.614   6.581   4.607 -0.2883  0.0569  0.1975
16403SOL    HW150650   5.618   6.669   4.643  0.7579 -0.8499  2.4890
16403SOL    HW250651   5.530   6.546   4.635 -0.9936  0.4826 -1.2592
16404SOL     OW50652   6.097   6.449   4.082  0.3657 -0.1449  0.1842
16404SOL    HW150653   6.038   6.400   4.140 -1.8845  1.2635 -0.7887
16404SOL    HW250654   6.082   6.541   4.105  1.1083  0.3236 -1.0989
16405SOL     OW50655   3.820   7.102   6.271  0.2576 -0.0295  0.1270
16405SOL    HW150656   3.902   7.057   6.294  1.2143  1.5196 -0.1103
16405SOL    HW250657   3.821   7.106   6.176  1.2595  2.2726  0.1629
16406SOL     OW50658   4.393   6.827   7.332  0.2049 -0.1223 -0.1760
16406SOL    HW150659   4.367   6.792   7.417  2.3091  2.3475  1.6591
16406SOL    HW250660   4.344   6.910   7.325 -0.1852 -0.4443 -1.5595
16407SOL     OW50661   4.484   6.348   7.868  0.1360 -0.0063  0.3647
16407SOL    HW150662   4.565   6.394   7.894  0.7704  0.2021 -1.7627
16407SOL    HW250663   4.503   6.256   7.883  0.0297  0.1629  1.6753
16408SOL     OW50664   6.944   6.487   4.583 -0.1970 -0.6934 -0.4848
16408SOL    HW150665   7.016   6.441   4.540  0.4626 -1.2711  1.1269
16408SOL    HW250666   6.944   6.452   4.672 -1.2880  0.6587  0.0848
16409SOL     OW50667   3.910   5.091   4.773  0.9079 -0.1241 -0.3766
16409SOL    HW150668   3.969   5.156   4.735  1.6346  0.3018  1.3452
16409SOL    HW250669   3.964   5.046   4.839 -0.6109  0.1614  1.1418
16410SOL     OW50670   5.377   7.378   3.956  0.0086  0.2219 -0.5451
16410SOL    HW150671   5.297   7.357   3.909  0.9738  0.0676 -2.1744
16410SOL    HW250672   5.437   7.411   3.889  1.2587  0.5232  0.6632
16411SOL     OW50673   3.515   6.267   5.170  0.0609 -0.0394  0.3425
16411SOL    HW150674   3.498   6.314   5.252  0.1254  2.7868 -1.1662
16411SOL    HW250675   3.435   6.278   5.119  0.1532 -1.4679 -0.1431
16412SOL     OW50676   6.105   4.545   3.574  0.5716 -0.1839  0.3298
16412SOL    HW150677   6.040   4.475   3.576  0.1995  0.1528  0.2522
16412SOL    HW250678   6.058   4.621   3.609  0.6068  0.3245 -0.6839
16413SOL     OW50679   7.136   6.144   5.509  0.3197  0.1279 -0.1541
16413SOL    HW150680   7.214   6.149   5.453  0.2850 -0.0663 -0.2224
16413SOL    HW250681   7.108   6.234   5.520 -0.5369  0.0729 -1.6622
16414SOL     OW50682   6.046   5.604   4.152  0.2441 -0.3748  0.0813
16414SOL    HW150683   5.968   5.572   4.197 -0.0739 -1.0712 -0.9569
16414SOL    HW250684   6.072   5.533   4.094  0.0574  0.8631 -1.5868
16415SOL     OW50685   5.915   6.777   3.156 -0.0172  0.4626  0.0234
16415SOL    HW150686   5.882   6.832   3.085  1.8487  0.4361 -0.9076
16415SOL    HW250687   5.983   6.723   3.116  0.2445 -0.4097  1.5694
16416SOL     OW50688   2.486   7.407   3.459 -1.3703 -0.9323  0.0198
16416SOL    HW150689   2.480   7.327   3.406 -0.1947 -0.7838 -0.3606
16416SOL    HW250690   2.579   7.417   3.477 -1.5076  0.3157  0.1208
16417SOL     OW50691   6.462   5.705   2.511 -0.0605 -0.3130 -0.2596
16417SOL    HW150692   6.472   5.796   2.484  1.0805 -0.5921 -0.8274
16417SOL    HW250693   6.392   5.707   2.576  1.9351  1.4771  2.0460
16418SOL     OW50694   6.162   0.195   3.451  0.7997 -0.4429 -0.5161
16418SOL    HW150695   6.091   0.132   3.452  2.6475 -2.6554  0.5626
16418SOL    HW250696   6.204   0.183   3.366 -0.1914  1.0568 -1.2698
16419SOL     OW50697   4.299   5.644   4.055  0.4042  0.0627 -0.4527
16419SOL    HW150698   4.281   5.655   3.962  0.1080  0.0664 -0.3951
16419SOL    HW250699   4.340   5.727   4.081 -0.9729  0.7034 -0.2281
16420SOL     OW50700   4.890   6.397   4.433 -0.3404  0.1310 -0.3956
16420SOL    HW150701   4.825   6.443   4.486  0.0100 -0.7382  0.8659
16420SOL    HW250702   4.882   6.434   4.345 -0.4534  2.1533  0.4198
16421SOL     OW50703   1.841   6.312   4.178  0.4891 -0.4586 -0.4753
16421SOL    HW150704   1.885   6.323   4.094  1.2991 -1.3729 -0.1770
16421SOL    HW250705   1.909   6.324   4.243 -0.4058  1.7915  0.1678
16422SOL     OW50706   3.823   5.721   6.241 -0.9923  0.0185 -0.2455
16422SOL    HW150707   3.853   5.732   6.331 -0.5219 -2.1871 -0.0723
16422SOL    HW250708   3.822   5.626   6.228 -1.1814  0.2815 -2.5234
16423SOL     OW50709   3.444   4.040   7.075  0.0606  0.4769 -0.4100
16423SOL    HW150710   3.400   4.067   6.995 -1.2412  0.3135  0.2248
16423SOL    HW250711   3.490   4.119   7.104 -0.7293  0.9865 -0.5045
16424SOL     OW50712   3.352   6.242   7.784  0.0924 -0.1958 -0.5146
16424SOL    HW150713   3.396   6.306   7.727 -2.2759  1.3144 -0.7949
16424SOL    HW250714   3.334   6.167   7.726  0.7086 -0.0853 -0.8567
16425SOL     OW50715   6.366   6.392   6.378 -0.0532 -0.3235 -0.8149
16425SOL    HW150716   6.370   6.334   6.303 -1.3457 -0.5924 -0.6988
16425SOL    HW250717   6.308   6.463   6.351  0.6745  0.3744 -0.5888
16426SOL     OW50718   5.007   4.965   6.294 -0.9318 -0.6761 -0.2427
16426SOL    HW150719   5.023   5.037   6.235  1.5449 -0.5484  0.4826
16426SOL    HW250720   4.996   4.889   6.237  1.3356 -0.5498 -0.9365
16427SOL     OW50721   6.239   6.783   5.516  0.1538 -0.4358  0.0897
16427SOL    HW150722   6.144   6.784   5.511  0.2000 -0.5207 -2.3212
16427SOL    HW250723   6.267   6.862   5.470  1.2233 -1.6432 -1.4796
16428SOL     OW50724   2.992   6.853   6.568  0.1995  0.0181  0.3106
16428SOL    HW150725   3.063   6.886   6.624 -0.5936  1.9428  0.2723
16428SOL    HW250726   2.919   6.838   6.629  0.1670 -0.5153  0.1455
16429SOL     OW50727   4.663   6.550   4.486 -0.2689  0.0860 -0.4030
16429SOL    HW150728   4.595   6.533   4.552  1.3538 -0.6958  1.1444
16429SOL    HW250729   4.650   6.641   4.461 -1.3658  0.1914  0.4576
16430SOL     OW50730   3.516   7.540   4.211 -0.1792  0.3342 -0.0393
16430SOL    HW150731   3.581   7.601   4.245 -0.2819  0.1636  0.4701
16430SOL    HW250732   3.443   7.595   4.182  0.0607  0.5038 -0.3314
16431SOL     OW50733   4.269   7.082   7.331 -0.2480 -0.4750  0.1156
16431SOL    HW150734   4.314   7.166   7.345  0.6413 -0.8349 -0.5054
16431SOL    HW250735   4.179   7.099   7.357 -0.1486  0.7633 -0.2698
16432SOL     OW50736   3.450   5.974   6.451  0.2520  0.2591  0.1050
16432SOL    HW150737   3.489   5.937   6.371  0.7073  0.3505  0.2787
16432SOL    HW250738   3.356   5.973   6.435  0.1156 -2.2259  0.5912
16433SOL     OW50739   4.895   7.225   7.644 -0.0180  0.0034  0.1749
16433SOL    HW150740   4.812   7.205   7.600 -0.2776 -2.1689  1.4674
16433SOL    HW250741   4.868   7.262   7.728  0.2435 -1.1206  0.7845
16434SOL     OW50742   3.029   5.365   6.647  0.1843  0.7600  0.1566
16434SOL    HW150743   2.966   5.302   6.612 -1.3984  2.1836  0.2835
16434SOL    HW250744   3.074   5.318   6.717 -1.7020  0.0656  0.9631
16435SOL     OW50745   4.064   5.085   6.208 -0.3274  0.0615 -0.0907
16435SOL    HW150746   4.132   5.032   6.250 -0.1756 -0.3425 -0.8331
16435SOL    HW250747   3.991   5.025   6.194  0.9018 -0.8227 -3.6236
16436SOL     OW50748   4.964   7.186   6.719 -0.0957 -0.6697 -0.3071
16436SOL    HW150749   4.885   7.170   6.770  0.0554  0.3480  0.2779
16436SOL    HW250750   4.976   7.107   6.666 -1.1772 -1.0618  0.0222
16437SOL     OW50751   2.509   7.375   8.341  0.1952 -0.5939 -0.0346
16437SOL    HW150752   2.523   7.458   8.386  0.4088 -0.5004 -0.2709
16437SOL    HW250753   2.574   7.375   8.270 -1.2848  0.0580 -1.4699
16438SOL     OW50754   4.489   7.492   7.529 -0.0365  0.0143  0.0888
16438SOL    HW150755   4.423   7.481   7.461 -0.7373  0.5953  0.6598
16438SOL    HW250756   4.457   7.566   7.582  1.1403  0.4073  0.2864
16439SOL     OW50757   2.758   5.779   5.551 -0.0887  0.2371 -0.4152
16439SOL    HW150758   2.812   5.858   5.552  0.9785 -0.4738 -0.6347
16439SOL    HW250759   2.818   5.709   5.575 -1.2990 -0.3558  0.9893
16440SOL     OW50760   4.534   5.798   6.104 -0.8584  0.2500 -0.1696
16440SOL    HW150761   4.499   5.724   6.055 -2.0464  1.1936 -0.8103
16440SOL    HW250762   4.579   5.759   6.178  0.5367 -1.1956 -1.7085
16441SOL     OW50763   4.305   5.756   5.483  0.2710  0.3184 -0.0755
16441SOL    HW150764   4.305   5.801   5.398 -2.2125 -1.1877 -0.9808
16441SOL    HW250765   4.329   5.666   5.462  0.5778  0.1375  0.9885
16442SOL     OW50766   5.255   5.682   6.076  0.0729  0.0527  0.4010
16442SOL    HW150767   5.192   5.680   6.004  0.3835 -0.3286  0.1337
16442SOL    HW250768   5.291   5.771   6.075  0.5304 -0.1331 -0.3163
16443SOL     OW50769   3.346   6.368   6.366  0.2139  0.5417  0.7238
16443SOL    HW150770   3.380   6.330   6.448  1.4088 -0.9966 -0.4250
16443SOL    HW250771   3.290   6.300   6.330 -0.9948  1.5480  0.6414
16444SOL     OW50772   6.936   7.640   5.500  0.0784 -0.1396 -0.0683
16444SOL    HW150773   7.008   7.630   5.561  1.2623 -1.9183 -1.6509
16444SOL    HW250774   6.977   7.661   5.417 -1.3856  0.7478 -0.6115
16445SOL     OW50775   4.559   7.441   5.338 -0.1861  0.0946 -0.3083
16445SOL    HW150776   4.530   7.524   5.376 -2.2040 -0.6222 -0.1689
16445SOL    HW250777   4.618   7.404   5.404 -0.6638  0.6116  0.4253
16446SOL     OW50778   6.027   4.607   6.297 -0.6552  0.4356 -0.0611
16446SOL    HW150779   5.966   4.652   6.238 -0.0984  1.1457 -0.0988
16446SOL    HW250780   6.112   4.645   6.278  0.3109 -2.2233 -1.7654
16447SOL     OW50781   6.728   7.801   5.564 -0.1939 -0.1316  0.1791
16447SOL    HW150782   6.749   7.821   5.655 -0.0122  0.6893 -0.0314
16447SOL    HW250783   6.801   7.746   5.535  0.0776  0.1271  0.3544
16448SOL     OW50784   3.730   6.630   7.516  0.0292 -0.6036 -0.1888
16448SOL    HW150785   3.648   6.617   7.563  0.5366  0.2477  0.9793
16448SOL    HW250786   3.758   6.719   7.540  0.1127  0.0222 -2.4320
16449SOL     OW50787   3.907   6.825   6.157 -0.1582 -0.3607 -0.2572
16449SOL    HW150788   3.954   6.790   6.081  0.0067  0.0232 -0.3346
16449SOL    HW250789   3.818   6.841   6.126 -1.1566 -3.5674  0.5584
16450SOL     OW50790   4.113   6.797   6.550 -0.0502 -0.2285  0.6430
16450SOL    HW150791   4.071   6.882   6.540  0.0493 -0.2521  0.0007
16450SOL    HW250792   4.124   6.787   6.645  1.0623  0.9998  0.6630
16451SOL     OW50793   4.635   6.221   5.472 -0.2307  0.0765  0.7693
16451SOL    HW150794   4.680   6.139   5.449  1.0463  0.5688  1.4402
16451SOL    HW250795   4.698   6.289   5.450 -1.8094  1.0216 -1.1434
16452SOL     OW50796   3.590   7.273   5.103  0.3272  0.3144  0.2180
16452SOL    HW150797   3.619   7.249   5.191 -0.6038  0.6562  0.6287
16452SOL    HW250798   3.603   7.194   5.051  1.3376  0.2554  0.5418
16453SOL     OW50799   5.745   6.186   6.678 -0.7587 -0.8738 -0.0549
16453SOL    HW150800   5.809   6.257   6.668 -1.8840  0.1380 -0.3856
16453SOL    HW250801   5.695   6.187   6.596 -0.2520 -2.6325 -0.4147
16454SOL     OW50802   4.714   6.269   8.186  0.7736 -0.5033  0.0790
16454SOL    HW150803   4.663   6.190   8.168 -0.6423  0.9420 -3.0092
16454SOL    HW250804   4.774   6.275   8.111 -0.2297  2.0948 -0.6019
16455SOL     OW50805   3.426   5.367   8.981 -0.0075 -0.5662  0.0148
16455SOL    HW150806   3.492   5.308   8.945 -0.5672 -0.9835 -0.3420
16455SOL    HW250807   3.447   5.452   8.942 -0.2254 -0.8848 -0.8240
16456SOL     OW50808   5.262   6.907   5.812 -0.5911 -0.4146  0.1214
16456SOL    HW150809   5.280   6.921   5.906 -0.2388 -0.8588  0.1230
16456SOL    HW250810   5.210   6.983   5.787 -0.2534 -0.0273  0.5623
16457SOL     OW50811   5.544   7.476   7.702 -0.5559 -0.2991 -0.2836
16457SOL    HW150812   5.459   7.516   7.720  0.2041  1.2189  0.0614
16457SOL    HW250813   5.567   7.431   7.783  0.8466  2.8509  1.2514
16458SOL     OW50814   6.585   5.582   5.751  0.3198  0.0898 -0.3494
16458SOL    HW150815   6.674   5.563   5.778  1.5264  2.4964 -2.2267
16458SOL    HW250816   6.574   5.534   5.669 -0.5569 -1.0590  0.4065
16459SOL     OW50817   5.486   6.312   5.206 -0.3660 -0.2371  0.6333
16459SOL    HW150818   5.574   6.313   5.245 -0.3687 -0.8768  0.6736
16459SOL    HW250819   5.438   6.247   5.258 -0.5964 -0.5435  0.0443
16460SOL     OW50820   5.791   0.410   5.660  0.0693 -0.4586  0.1839
16460SOL    HW150821   5.794   0.468   5.736  0.3064 -1.6575  1.1206
16460SOL    HW250822   5.847   0.336   5.684 -0.7990 -1.4337 -0.6721
16461SOL     OW50823   4.640   5.033   7.353  0.2544 -0.0754 -0.2504
16461SOL    HW150824   4.555   5.061   7.318  1.3011  1.7286 -1.5613
16461SOL    HW250825   4.651   4.943   7.322 -2.2026 -1.3276  2.0692
16462SOL     OW50826   4.242   6.988   8.286 -0.0733 -0.9792  0.0635
16462SOL    HW150827   4.284   6.903   8.294 -0.1577 -0.9010  1.6502
16462SOL    HW250828   4.148   6.968   8.287 -0.1404 -1.0415 -2.1327
16463SOL     OW50829   4.771   5.278   5.907 -0.2687  0.3201  0.0292
16463SOL    HW150830   4.711   5.253   5.978 -0.7171  1.0288 -0.0851
16463SOL    HW250831   4.781   5.199   5.854 -1.0355  0.1705  0.1009
16464SOL     OW50832   4.321   6.825   6.275 -1.1727  0.2748  0.0518
16464SOL    HW150833   4.368   6.785   6.348 -1.8382  0.9397  0.8639
16464SOL    HW250834   4.326   6.760   6.205 -0.2730 -0.2506  0.5844
16465SOL     OW50835   2.794   5.624   5.313  0.1087  0.4754  0.3858
16465SOL    HW150836   2.717   5.675   5.339  1.2269  1.1959  2.4440
16465SOL    HW250837   2.860   5.689   5.290 -0.1599 -0.1302 -2.5472
16466SOL     OW50838   1.375   5.843   6.689 -0.0935 -0.1127 -0.0143
16466SOL    HW150839   1.425   5.776   6.737 -0.5524 -0.5815 -0.1807
16466SOL    HW250840   1.418   5.847   6.603  0.0153 -0.1031  0.0407
16467SOL     OW50841   5.035   6.043   6.003  0.1507  0.0308  0.4894
16467SOL    HW150842   5.036   6.075   5.913  2.8091 -2.3004 -0.4336
16467SOL    HW250843   4.968   5.974   6.004  1.7365 -1.5960 -0.4394
16468SOL     OW50844   3.611   7.502   8.022  0.2252  0.5347 -0.1675
16468SOL    HW150845   3.619   7.594   8.048 -1.0259  0.5118  0.3868
16468SOL    HW250846   3.655   7.497   7.938  0.2828  1.6583 -0.2194
16469SOL     OW50847   5.542   7.583   6.471 -0.1440 -0.0935 -0.0818
16469SOL    HW150848   5.503   7.664   6.437  0.7819 -0.1189 -1.3077
16469SOL    HW250849   5.509   7.514   6.413 -0.2557 -0.4734  0.4243
16470SOL     OW50850   3.831   5.425   6.725 -0.2245  0.2037 -0.4661
16470SOL    HW150851   3.809   5.335   6.697  0.3753  0.6281 -2.4900
16470SOL    HW250852   3.926   5.423   6.738 -0.4653  0.0675  1.5512
16471SOL     OW50853   5.730   7.303   5.899 -0.0510 -0.2878  0.2023
16471SOL    HW150854   5.790   7.291   5.973  0.3615  1.2043  0.1512
16471SOL    HW250855   5.698   7.393   5.909 -0.2145 -0.1614 -1.2729
16472SOL     OW50856   2.090   4.696   5.106 -0.4424 -0.3082  0.2827
16472SOL    HW150857   2.120   4.662   5.022 -1.7860 -1.7924  0.3489
16472SOL    HW250858   2.049   4.780   5.084  1.1787  0.3878 -0.1878
16473SOL     OW50859   4.939   0.365   5.134  0.3827 -0.2819 -0.0284
16473SOL    HW150860   4.861   0.322   5.101  0.7412 -0.4986 -0.6174
16473SOL    HW250861   4.941   0.345   5.228  1.2372 -2.6760 -0.4980
16474SOL     OW50862   5.613   0.993   6.174 -0.6745  0.9827  0.1026
16474SOL    HW150863   5.672   0.939   6.227 -0.2101  0.0957 -1.2696
16474SOL    HW250864   5.669   1.062   6.139 -0.6092  0.6114 -0.5423
16475SOL     OW50865   4.024   6.338   4.687 -0.2156  0.3145  0.3713
16475SOL    HW150866   4.093   6.377   4.740 -0.5879 -0.8105  1.7509
16475SOL    HW250867   3.944   6.380   4.717 -0.1231  2.1627 -1.7494
16476SOL     OW50868   5.569   6.163   6.444 -0.0120 -0.6667 -0.0400
16476SOL    HW150869   5.525   6.133   6.365 -1.3277  0.1167  0.3504
16476SOL    HW250870   5.569   6.259   6.437 -1.4870 -0.4878  1.5201
16477SOL     OW50871   3.511   6.241   7.304  0.0036  0.3037  0.1731
16477SOL    HW150872   3.510   6.149   7.330  2.0799  0.7179  2.0447
16477SOL    HW250873   3.599   6.271   7.327  0.0733  2.2742 -2.2661
16478SOL     OW50874   5.799   5.943   5.995  0.1024 -0.3005  0.1426
16478SOL    HW150875   5.739   5.869   5.996  1.0514 -1.1003  1.1640
16478SOL    HW250876   5.762   6.004   5.931  0.3441 -2.5220 -2.3046
16479SOL     OW50877   3.502   5.463   5.966 -0.5704  0.1129 -0.1093
16479SOL    HW150878   3.502   5.376   6.007  0.2038  0.2336  0.1715
16479SOL    HW250879   3.586   5.467   5.920 -0.3664  0.9167  0.3184
16480SOL     OW50880   6.504   7.688   3.021 -0.4956 -0.4254  0.4855
16480SOL    HW150881   6.525   7.725   3.107 -1.7375 -1.6179  1.3541
16480SOL    HW250882   6.578   7.631   3.001  0.1969  0.4894  0.3445
16481SOL     OW50883   5.322   6.557   5.207 -0.0946  0.1209 -0.2983
16481SOL    HW150884   5.369   6.474   5.216  0.6543  0.6357  0.7093
16481SOL    HW250885   5.391   6.623   5.209 -0.8313  0.8847  0.9391
16482SOL     OW50886   6.017   0.487   4.478  0.3129  0.6276 -0.1900
16482SOL    HW150887   5.977   0.573   4.466 -0.8534 -0.1483 -2.6909
16482SOL    HW250888   5.944   0.429   4.502  0.8983  0.1533  0.4812
16483SOL     OW50889   5.251   6.494   7.530 -0.2534  0.0110 -0.3444
16483SOL    HW150890   5.231   6.520   7.620 -0.6696  1.1672 -0.7492
16483SOL    HW250891   5.261   6.399   7.534 -0.9060 -0.0267  0.7997
16484SOL     OW50892   4.600   6.394   6.513 -0.5248 -0.2555 -0.1278
16484SOL    HW150893   4.540   6.444   6.568 -0.2446 -0.2519  0.1745
16484SOL    HW250894   4.606   6.446   6.432  0.7871  0.9004  0.6730
16485SOL     OW50895   3.645   5.873   7.201  0.4045  0.0814 -0.7164
16485SOL    HW150896   3.582   5.885   7.130 -0.1420  0.2063 -0.2201
16485SOL    HW250897   3.710   5.942   7.187  0.0946  0.3452 -0.8832
16486SOL     OW50898   2.952   5.341   4.472 -0.0933  0.2512 -0.2981
16486SOL    HW150899   3.013   5.408   4.442  0.0675 -0.2666 -1.1705
16486SOL    HW250900   2.998   5.258   4.458 -0.6763 -0.0972 -0.1912
16487SOL     OW50901   4.910   5.640   8.223 -0.0512  0.3109  0.1063
16487SOL    HW150902   4.904   5.675   8.311  3.1501 -0.3990  0.7634
16487SOL    HW250903   4.913   5.545   8.235  1.7929  0.2408 -0.5380
16488SOL     OW50904   5.395   5.620   9.803 -0.0471 -0.1712 -0.3434
16488SOL    HW150905   5.339   5.558   9.757  0.8779 -0.0339 -1.7067
16488SOL    HW250906   5.401   5.695   9.744  2.5712 -0.6874 -0.8783
16489SOL     OW50907   6.178   6.020   7.699 -0.3352  0.1096 -0.1037
16489SOL    HW150908   6.115   6.058   7.760 -0.4398 -1.3401  0.7517
16489SOL    HW250909   6.255   6.000   7.752 -0.6483 -1.7336 -0.2575
16490SOL     OW50910   2.780   1.794   6.541  0.0444  0.0311 -0.0118
16490SOL    HW150911   2.782   1.756   6.628 -1.0846 -1.2936 -0.5382
16490SOL    HW250912   2.859   1.761   6.498 -0.4797 -1.0433 -0.1741
16491SOL     OW50913   3.279   4.585   7.037  0.4452  0.0720  0.0778
16491SOL    HW150914   3.323   4.613   7.118 -0.4656 -1.0711  1.0142
16491SOL    HW250915   3.312   4.497   7.021  1.3066  0.6315 -1.3439
16492SOL     OW50916   3.333   5.629   5.085 -0.1667  0.0456 -0.2121
16492SOL    HW150917   3.292   5.588   5.161  1.0335  0.6697  0.8197
16492SOL    HW250918   3.260   5.657   5.030 -1.0251 -2.0744 -0.2212
16493SOL     OW50919   4.885   6.606   6.488  0.3992 -0.0298  0.4583
16493SOL    HW150920   4.870   6.512   6.488 -1.2306  0.1995  0.9381
16493SOL    HW250921   4.958   6.619   6.427  0.5670 -1.5818  0.3006
16494SOL     OW50922   3.013   5.728   6.174  0.4375  0.1300 -0.1425
16494SOL    HW150923   3.068   5.666   6.221 -0.3205  1.7988  3.2074
16494SOL    HW250924   3.074   5.788   6.132  1.1412 -0.2563  0.3239
16495SOL     OW50925   5.234   5.467   6.238  0.5569 -0.0229  0.2996
16495SOL    HW150926   5.218   5.536   6.173 -1.4158 -1.2085 -0.5502
16495SOL    HW250927   5.307   5.417   6.201  0.2759  0.0589 -0.3884
16496SOL     OW50928   4.873   6.156   7.067 -0.4290 -0.5861 -0.4074
16496SOL    HW150929   4.833   6.223   7.124 -1.0080 -0.8556 -0.4847
16496SOL    HW250930   4.905   6.090   7.128  0.3673 -0.1255 -0.3177
16497SOL     OW50931   5.409   7.773   7.549  0.1512  0.4764  0.3594
16497SOL    HW150932   5.427   7.704   7.484  0.6932  0.4008  0.5793
16497SOL    HW250933   5.343   7.735   7.606  0.4650  0.1251  0.4929
16498SOL     OW50934   4.117   6.338   5.955  0.2482  0.1077  0.2107
16498SOL    HW150935   4.186   6.274   5.973  0.5324  0.8345  1.8995
16498SOL    HW250936   4.118   6.348   5.860  0.9775 -1.5265  0.0130
16499SOL     OW50937   4.038   6.134   5.746 -0.1524  0.4751  0.3956
16499SOL    HW150938   4.109   6.110   5.805  0.3094  2.3164  0.6631
16499SOL    HW250939   4.082   6.159   5.665 -0.7043 -0.8717 -0.3513
16500SOL     OW50940   4.643   6.552   5.494 -0.0457  0.0709  0.4280
16500SOL    HW150941   4.599   6.587   5.417  0.7674  2.5630  1.0039
16500SOL    HW250942   4.726   6.519   5.462  0.2593  1.0368  0.1949
16501SOL     OW50943   4.499   7.644   6.852 -0.0962  0.0959 -0.3556
16501SOL    HW150944   4.485   7.733   6.820 -3.9119  0.2838  1.3283
16501SOL    HW250945   4.416   7.599   6.834 -0.9493 -1.0157  4.8912
16502SOL     OW50946   3.840   7.125   7.859 -0.5557 -0.2624 -0.0925
16502SOL    HW150947   3.776   7.165   7.800  0.8787 -1.7309 -2.8191
16502SOL    HW250948   3.882   7.198   7.903 -1.9385  0.8670 -0.5717
16503SOL     OW50949   4.778   6.382   5.157  0.3109 -0.7255  0.4327
16503SOL    HW150950   4.705   6.370   5.219 -0.9008 -0.9789 -0.9915
16503SOL    HW250951   4.775   6.475   5.134  0.9991 -0.5490  1.0030
16504SOL     OW50952   3.159   6.430   5.328  0.0177  0.4502  0.3633
16504SOL    HW150953   3.074   6.389   5.315 -1.0362  2.3188  1.0085
16504SOL    HW250954   3.219   6.357   5.345 -0.8872 -1.1257 -2.6046
16505SOL     OW50955   3.625   4.673   7.110  0.1420 -0.5702  0.4736
16505SOL    HW150956   3.550   4.712   7.156  0.6137 -2.5086  3.0824
16505SOL    HW250957   3.669   4.748   7.069 -1.6550  0.9639  1.1746
16506SOL     OW50958   4.842   5.874   6.071  0.6801  0.0830  0.1136
16506SOL    HW150959   4.812   5.863   6.161  1.3164  2.4995  0.6910
16506SOL    HW250960   4.772   5.837   6.017 -1.2218  1.4197  1.5402
16507SOL     OW50961   5.871   5.639   5.687  0.1096 -0.5106 -0.6615
16507SOL    HW150962   5.802   5.575   5.704 -0.3458  0.2145  0.3642
16507SOL    HW250963   5.824   5.720   5.668  0.6734 -0.0827 -0.2740
16508SOL     OW50964   5.738   7.842   6.857 -0.1271 -0.0896 -0.4589
16508SOL    HW150965   5.789   7.887   6.789 -0.9112  1.9815  0.2410
16508SOL    HW250966   5.687   7.777   6.809  0.7847 -0.0186 -1.5798
16509SOL     OW50967   6.496   5.961   4.106  0.2068  0.3065  0.3382
16509SOL    HW150968   6.479   5.868   4.092 -0.8981  0.5738 -0.2257
16509SOL    HW250969   6.592   5.967   4.111  0.3956 -0.6555 -1.2596
16510SOL     OW50970   4.495   5.572   7.302  0.3415  0.0447  0.1757
16510SOL    HW150971   4.474   5.616   7.385 -2.7806  0.4105 -0.7087
16510SOL    HW250972   4.471   5.481   7.317  0.9452 -0.1458  0.0269
16511SOL     OW50973   4.192   5.588   7.369 -0.2887 -0.7752 -0.0862
16511SOL    HW150974   4.146   5.664   7.405 -0.6732 -0.3394 -1.4186
16511SOL    HW250975   4.266   5.625   7.322 -0.6160 -1.1953 -0.9495
16512SOL     OW50976   3.336   6.443   6.067 -0.0894 -0.1945 -0.4493
16512SOL    HW150977   3.264   6.499   6.038  0.3918  0.6179 -0.1101
16512SOL    HW250978   3.358   6.390   5.990  0.2094  0.9067 -1.1431
16513SOL     OW50979   4.578   5.779   7.536 -0.2163  0.5864  0.3259
16513SOL    HW150980   4.513   5.827   7.484  0.9740  0.8549 -0.9620
16513SOL    HW250981   4.591   5.833   7.614  1.1762  2.4885 -1.1449
16514SOL     OW50982   5.075   7.376   6.845  0.2700 -0.2992 -0.0549
16514SOL    HW150983   5.040   7.459   6.813 -0.2923 -0.3710  0.3511
16514SOL    HW250984   5.032   7.309   6.792  0.1951 -0.3632  0.0860
16515SOL     OW50985   6.722   6.856   5.250 -0.4997 -0.1524 -0.3323
16515SOL    HW150986   6.804   6.856   5.300 -0.3769  3.2868 -0.3010
16515SOL    HW250987   6.748   6.825   5.163  0.5927 -0.1892 -0.0141
16516SOL     OW50988   3.059   6.929   6.229  0.0052  0.3488  0.5447
16516SOL    HW150989   3.071   7.023   6.243  0.3563  0.4346 -0.2985
16516SOL    HW250990   3.146   6.892   6.241 -0.0787  0.1617  0.5836
16517SOL     OW50991   6.075   7.552   6.670 -0.3025  0.1076 -0.1319
16517SOL    HW150992   6.092   7.622   6.608  1.5189  0.6322  0.8857
16517SOL    HW250993   6.018   7.591   6.736  0.9336  0.7773  0.5849
16518SOL     OW50994   4.271   6.646   5.230 -0.1507  0.0482  0.4691
16518SOL    HW150995   4.229   6.648   5.144 -2.1080 -1.5894  1.3048
16518SOL    HW250996   4.280   6.739   5.254 -1.3471  0.5015 -0.7004
16519SOL     OW50997   5.256   6.146   6.492 -0.2528  0.2764  0.3901
16519SOL    HW150998   5.205   6.098   6.427  0.6866  0.2216 -0.3268
16519SOL    HW250999   5.217   6.233   6.494 -1.7260 -0.3707  1.4202
16520SOL     OW51000   4.221   6.505   6.902  0.3940  0.0890  0.1216
16520SOL    HW151001   4.142   6.453   6.911  0.6852 -0.2150  1.0482
16520SOL    HW251002   4.282   6.467   6.965  0.9454  0.9230  0.1051
16521SOL     OW51003   4.030   0.256   5.849  0.1035  0.3513 -0.5351
16521SOL    HW151004   4.051   0.180   5.903 -1.5363  0.1841 -0.0801
16521SOL    HW251005   3.941   0.280   5.875  0.1093  1.6275 -1.6028
16522SOL     OW51006   4.047   0.387   4.409 -0.3965  0.5721 -0.1034
16522SOL    HW151007   4.000   0.334   4.345  0.9827  0.3555 -0.9789
16522SOL    HW251008   4.133   0.401   4.370  1.2592 -1.3050  2.5507
16523SOL     OW51009   3.635   6.652   6.108 -0.4867 -0.9555  0.5811
16523SOL    HW151010   3.681   6.597   6.044  2.1812 -0.8255  2.2057
16523SOL    HW251011   3.658   6.741   6.084 -1.0229 -0.7967  0.6471
16524SOL     OW51012   5.070   7.963   6.079  0.4856 -0.1666 -0.2689
16524SOL    HW151013   5.090   8.038   6.135 -0.0803 -0.6024  0.5296
16524SOL    HW251014   5.096   7.887   6.131 -0.2033 -0.5866 -0.5309
16525SOL     OW51015   5.794   6.774   7.005  0.4382 -0.1349 -0.1006
16525SOL    HW151016   5.714   6.739   6.966 -0.5251  0.2713  1.4197
16525SOL    HW251017   5.803   6.726   7.087  1.4966  0.1689 -0.0328
16526SOL     OW51018   3.566   5.317   4.895 -0.4237  0.2481  0.3739
16526SOL    HW151019   3.613   5.288   4.816  0.9375  1.7162  0.6040
16526SOL    HW251020   3.633   5.321   4.963 -1.0003  1.7610  0.8866
16527SOL     OW51021   4.351   7.850   6.102  0.2456  0.1499 -1.3872
16527SOL    HW151022   4.283   7.788   6.130 -0.5235  1.1470 -0.9770
16527SOL    HW251023   4.382   7.889   6.184  2.2988 -1.2396 -1.4322
16528SOL     OW51024   3.396   5.275   6.525  0.1385  0.3293 -0.9077
16528SOL    HW151025   3.489   5.263   6.506 -0.1549  0.2306 -2.3550
16528SOL    HW251026   3.355   5.193   6.497 -0.3204  0.1011  0.3505
16529SOL     OW51027   4.688   5.998   8.024  0.2809 -0.2471  0.5958
16529SOL    HW151028   4.603   6.013   8.066  1.4681  1.1918  2.6483
16529SOL    HW251029   4.714   5.911   8.056  0.8220  0.5083  2.3026
16530SOL     OW51030   3.230   5.478   6.515 -0.4560 -0.1729  0.7469
16530SOL    HW151031   3.148   5.437   6.541 -0.2051 -3.0072 -2.2607
16530SOL    HW251032   3.297   5.412   6.535  0.2784 -0.4114 -1.9753
16531SOL     OW51033   4.685   5.055   7.647 -0.2916 -0.4753  0.8321
16531SOL    HW151034   4.643   5.125   7.597 -0.1000  0.1541  1.5208
16531SOL    HW251035   4.739   5.008   7.583 -1.3067 -0.7070  0.1335
16532SOL     OW51036   4.310   6.071   5.628  0.1112 -0.0414 -0.3214
16532SOL    HW151037   4.251   6.062   5.553  0.0601  0.1194 -0.3023
16532SOL    HW251038   4.347   6.159   5.618  1.0633 -0.4884 -0.8555
16533SOL     OW51039   6.644   5.842   7.887 -0.3815  0.2576  0.1581
16533SOL    HW151040   6.594   5.823   7.966  0.5161 -1.7513  0.2931
16533SOL    HW251041   6.707   5.770   7.880  0.6833  1.2748 -1.4761
16534SOL     OW51042   4.144   6.051   5.996  0.1244 -0.1163  0.4285
16534SOL    HW151043   4.157   6.094   6.080  0.8807 -1.2172  0.8935
16534SOL    HW251044   4.065   5.999   6.007 -1.2807  1.7032 -0.3988
16535SOL     OW51045   4.165   6.414   5.359  0.1811  0.2668 -0.7814
16535SOL    HW151046   4.209   6.484   5.310 -2.8889  1.3616 -2.2448
16535SOL    HW251047   4.092   6.457   5.403 -0.1352 -1.5943  0.6343
16536SOL     OW51048   3.960   5.896   5.283 -0.5912 -0.0306  0.1379
16536SOL    HW151049   3.951   5.845   5.364  0.5808 -2.1274 -0.9756
16536SOL    HW251050   3.874   5.937   5.271 -0.7021  0.6714  2.5915
16537SOL     OW51051   5.433   5.884   6.011  0.2085 -0.3845  0.0172
16537SOL    HW151052   5.501   5.817   6.003  0.5685 -0.0517  0.2602
16537SOL    HW251053   5.450   5.943   5.938 -0.0834 -0.5334 -0.1717
16538SOL     OW51054   5.636   5.516   5.719 -0.1030  0.3165 -0.0333
16538SOL    HW151055   5.583   5.530   5.798  0.1269  1.3897 -0.0517
16538SOL    HW251056   5.611   5.428   5.689  0.0382 -0.2471  1.4030
16539SOL     OW51057   3.110   5.968   6.388 -0.3592 -0.2602  0.4911
16539SOL    HW151058   3.130   5.996   6.477 -0.2489  0.6613  0.1858
16539SOL    HW251059   3.071   5.881   6.398 -0.6631 -0.0228  1.4616
16540SOL     OW51060   4.676   6.366   4.224 -0.1214  0.2291  0.3434
16540SOL    HW151061   4.666   6.449   4.272 -2.2037 -0.2159  0.7824
16540SOL    HW251062   4.622   6.378   4.145  2.3468  0.5221 -1.4119
16541SOL     OW51063   4.109   6.548   6.155 -0.0510  0.2805  0.1192
16541SOL    HW151064   4.060   6.545   6.238  0.7946 -2.0614  0.5988
16541SOL    HW251065   4.078   6.472   6.107  0.5662  0.7883 -1.1096
16542SOL     OW51066   4.022   6.650   8.478  0.1108  0.2922  0.3902
16542SOL    HW151067   4.109   6.683   8.502  0.3368  1.2022 -1.4645
16542SOL    HW251068   4.027   6.638   8.383 -1.1105 -1.7942  0.5195
16543SOL     OW51069   5.453   6.659   6.713  0.7220  0.3598  0.3466
16543SOL    HW151070   5.373   6.608   6.722  0.0536  1.2299 -0.4259
16543SOL    HW251071   5.433   6.724   6.645  2.4245 -0.0781 -0.6629
16544SOL     OW51072   3.601   5.871   6.252  0.0632  0.3955 -0.2219
16544SOL    HW151073   3.695   5.852   6.249  0.2032  1.0726 -0.2172
16544SOL    HW251074   3.559   5.785   6.250  0.6511  0.1049 -1.3811
16545SOL     OW51075   5.735   6.367   5.920 -0.1500  0.2594 -0.1425
16545SOL    HW151076   5.782   6.385   5.838  0.3517 -0.7234 -0.0799
16545SOL    HW251077   5.804   6.344   5.983 -0.6934 -1.2059 -0.0515
16546SOL     OW51078   5.885   0.725   4.366  0.0979 -0.0942  0.1256
16546SOL    HW151079   5.796   0.729   4.401 -0.5866 -3.0401 -0.9803
16546SOL    HW251080   5.878   0.758   4.277  0.0743 -0.4317  0.0003
16547SOL     OW51081   4.799   5.630   6.551  0.2678 -0.2252 -0.3005
16547SOL    HW151082   4.876   5.580   6.522  0.9736 -0.2664  1.5238
16547SOL    HW251083   4.823   5.722   6.536  0.0120 -0.2972 -1.2171
16548SOL     OW51084   4.236   5.711   6.044 -0.0689 -0.0651  0.4931
16548SOL    HW151085   4.145   5.741   6.036 -0.4966 -1.2485  0.6276
16548SOL    HW251086   4.289   5.783   6.010 -1.0506  0.7323  0.6243
16549SOL     OW51087   4.194   4.094   6.213 -0.6654 -0.0456 -0.4090
16549SOL    HW151088   4.175   4.000   6.219 -1.0293  0.0979  1.0009
16549SOL    HW251089   4.119   4.136   6.255 -0.2232  0.8432 -0.4913
16550SOL     OW51090   4.923   6.037   6.817  0.5703 -0.4682 -0.2900
16550SOL    HW151091   4.865   6.098   6.863  1.4033  1.7035 -1.9529
16550SOL    HW251092   4.995   6.022   6.878  0.4115  0.3355  0.1115
16551SOL     OW51093   3.557   7.328   6.194 -0.2963  0.4601 -0.3358
16551SOL    HW151094   3.624   7.366   6.251 -0.0181 -0.8346  0.2387
16551SOL    HW251095   3.605   7.299   6.116 -0.0027 -1.1790  0.4056
16552SOL     OW51096   4.956   0.648   4.447  0.5891 -0.3488  0.1194
16552SOL    HW151097   5.039   0.605   4.426  1.2249 -0.0188  1.7760
16552SOL    HW251098   4.945   0.632   4.541  0.3407  2.2119  0.5790
16553SOL     OW51099   4.321   7.497   7.305  0.1449 -0.6313  0.1857
16553SOL    HW151100   4.386   7.503   7.236  0.5806 -2.4480  0.3802
16553SOL    HW251101   4.243   7.460   7.262  0.4103 -1.7481  0.6161
16554SOL     OW51102   4.272   5.543   5.712  0.1391  0.1019  0.0026
16554SOL    HW151103   4.216   5.471   5.680 -0.9881  0.7528  0.4603
16554SOL    HW251104   4.361   5.513   5.693 -0.3644 -0.7424 -1.2342
16555SOL     OW51105   5.728   7.934   5.411  0.0744 -0.2056 -0.6808
16555SOL    HW151106   5.722   7.866   5.479 -0.3185 -0.6938 -1.1972
16555SOL    HW251107   5.705   7.889   5.330  1.9310  0.0236 -1.3851
16556SOL     OW51108   3.246   6.897   5.881 -0.3597  0.4429  0.2846
16556SOL    HW151109   3.266   6.979   5.926 -3.1955  1.3726  0.0558
16556SOL    HW251110   3.268   6.914   5.789 -2.7213  1.7448 -0.1203
16557SOL     OW51111   5.495   6.566   5.972  0.0144 -0.1272 -0.1395
16557SOL    HW151112   5.400   6.552   5.980 -0.2665  0.4191 -1.9998
16557SOL    HW251113   5.529   6.483   5.938 -0.2086  0.4695 -1.9061
16558SOL     OW51114   6.130   7.360   7.085  0.1891 -0.5573  0.0981
16558SOL    HW151115   6.203   7.314   7.044 -0.5750 -1.0329 -0.7553
16558SOL    HW251116   6.108   7.307   7.162 -0.9908 -1.9238 -1.1369
16559SOL     OW51117   5.206   7.223   4.800 -0.1021 -0.2592 -0.0860
16559SOL    HW151118   5.293   7.181   4.804  0.1593  0.2315 -0.6188
16559SOL    HW251119   5.167   7.202   4.885  0.7316 -0.0631  0.3601
16560SOL     OW51120   4.527   5.218   7.033  0.4698 -0.6520  0.0942
16560SOL    HW151121   4.613   5.202   6.995  0.9625  0.6482  0.6152
16560SOL    HW251122   4.495   5.296   6.986  0.7194  0.4602  1.7000
16561SOL     OW51123   4.827   5.473   7.299 -0.0101 -0.5052 -0.2695
16561SOL    HW151124   4.831   5.522   7.381  0.2476  0.4160 -0.8137
16561SOL    HW251125   4.790   5.389   7.323 -2.1683  0.5658  0.4243
16562SOL     OW51126   5.968   5.202   7.805 -0.4676 -0.0059  0.2720
16562SOL    HW151127   5.881   5.169   7.780 -0.8308  0.1823  1.2261
16562SOL    HW251128   5.950   5.284   7.851  0.2522  0.2303  0.1426
16563SOL     OW51129   4.124   6.521   6.490 -0.2375  0.1399 -0.3572
16563SOL    HW151130   4.037   6.514   6.449  1.3026 -1.2373 -3.8892
16563SOL    HW251131   4.139   6.615   6.499 -1.6595  0.4329 -0.7087
16564SOL     OW51132   4.914   6.375   6.890 -0.2827 -0.0046  0.1136
16564SOL    HW151133   4.915   6.304   6.954  0.1341 -0.6195 -0.5653
16564SOL    HW251134   4.913   6.331   6.805  1.4204  0.7757 -0.3577
16565SOL     OW51135   3.561   6.513   7.187 -0.2251  0.5173  0.7007
16565SOL    HW151136   3.473   6.512   7.223 -0.2941 -1.9107  0.6065
16565SOL    HW251137   3.615   6.469   7.252  1.1010  2.5005  1.0368
16566SOL     OW51138   3.607   6.624   6.477 -0.3941  0.2439 -0.8333
16566SOL    HW151139   3.638   6.610   6.566 -1.8009 -0.3841 -0.4073
16566SOL    HW251140   3.616   6.718   6.462  1.3164  0.1390 -0.6241
16567SOL     OW51141   5.351   6.423   6.269  0.0705 -0.7183 -0.0919
16567SOL    HW151142   5.409   6.409   6.344 -0.4273 -2.1559  0.0487
16567SOL    HW251143   5.273   6.466   6.307  0.3601 -0.2597 -0.0108
16568SOL     OW51144   4.220   5.882   7.762  0.1723  0.1071 -0.3556
16568SOL    HW151145   4.188   5.972   7.769  0.3500  0.1724 -0.3653
16568SOL    HW251146   4.174   5.845   7.687 -1.2177 -0.3636  0.6736
16569SOL     OW51147   1.959   7.546   5.956  0.0698  0.3325  0.1462
16569SOL    HW151148   1.963   7.543   5.860 -0.1472 -0.4321  0.1537
16569SOL    HW251149   1.903   7.622   5.975 -0.5614  0.0031 -0.3546
16570SOL     OW51150   3.021   7.805   6.039  0.4132  0.0064 -0.1654
16570SOL    HW151151   2.998   7.739   5.974  0.2808 -0.6883  0.5701
16570SOL    HW251152   3.110   7.784   6.065  1.3498  1.6798 -1.7711
16571SOL     OW51153   4.074   0.207   6.542 -0.1216  0.3785  0.2321
16571SOL    HW151154   4.061   0.302   6.532 -2.4503  0.2104  1.1994
16571SOL    HW251155   4.040   0.169   6.461 -1.0278  0.2701  0.6503
16572SOL     OW51156   5.729   5.847   5.664 -0.2195  0.5058  0.0168
16572SOL    HW151157   5.635   5.832   5.666 -0.4238  1.6313  2.0292
16572SOL    HW251158   5.740   5.927   5.612 -0.1474 -0.6612 -1.8314
16573SOL     OW51159   3.058   5.923   7.487  0.0286  0.0130 -0.2354
16573SOL    HW151160   3.099   5.871   7.417 -0.3630 -0.1761 -0.3275
16573SOL    HW251161   2.996   5.979   7.441 -0.3643 -0.2444 -0.0173
16574SOL     OW51162   2.693   5.976   7.722 -1.0065 -0.0872 -0.5599
16574SOL    HW151163   2.703   5.971   7.627  0.0660  0.7807 -0.5171
16574SOL    HW251164   2.670   5.888   7.749 -1.6325 -0.2757 -1.6567
16575SOL     OW51165   6.090   6.613   7.042  0.5881  0.5045  0.7888
16575SOL    HW151166   6.123   6.550   6.978 -0.2683  0.7369  0.0985
16575SOL    HW251167   6.039   6.675   6.991  2.3981  2.5140  1.2703
16576SOL     OW51168   3.206   6.241   4.687  0.0449 -0.1560  0.0278
16576SOL    HW151169   3.148   6.239   4.763 -0.4072  2.5638 -0.1726
16576SOL    HW251170   3.149   6.258   4.613  0.7274 -0.7854 -0.6705
16577SOL     OW51171   3.807   5.646   5.439  0.0435 -0.6255 -0.1330
16577SOL    HW151172   3.784   5.558   5.470  1.2920 -0.6316  0.8993
16577SOL    HW251173   3.765   5.653   5.353 -1.7097 -1.4742  0.6041
16578SOL     OW51174   4.686   7.877   6.100 -0.4282  0.0099  0.1523
16578SOL    HW151175   4.710   7.951   6.044  0.6066 -0.4374 -0.0295
16578SOL    HW251176   4.725   7.801   6.056 -0.1125 -0.4292  1.1560
16579SOL     OW51177   5.632   5.125   6.952 -0.0305 -0.1481  0.4122
16579SOL    HW151178   5.563   5.077   6.998  0.3545 -0.7192  0.4005
16579SOL    HW251179   5.666   5.062   6.888  2.0983 -0.7031  1.9667
16580SOL     OW51180   4.433   5.162   6.304 -0.1693 -0.1686 -0.0183
16580SOL    HW151181   4.473   5.191   6.387 -2.0876  1.4683  0.4141
16580SOL    HW251182   4.383   5.084   6.328 -2.3693  1.4236  0.9202
16581SOL     OW51183   6.355   0.470   5.058  0.1815  0.2514 -0.2206
16581SOL    HW151184   6.433   0.521   5.039 -0.6938  1.5378 -0.4924
16581SOL    HW251185   6.300   0.479   4.980 -0.7983  0.4860  0.4664
16582SOL     OW51186   3.514   5.515   6.832  0.0837  0.1388 -0.0946
16582SOL    HW151187   3.535   5.438   6.884 -1.2259 -0.1265  0.0832
16582SOL    HW251188   3.568   5.585   6.870  0.1291 -0.3470  0.7591
16583SOL     OW51189   6.071   5.451   6.194  0.4146 -0.1924  0.1466
16583SOL    HW151190   6.122   5.528   6.220 -1.1645  1.1032 -0.4247
16583SOL    HW251191   6.118   5.417   6.117  1.8172 -0.5873  1.1305
16584SOL     OW51192   6.348   7.827   6.582 -0.0043  0.0625  0.5216
16584SOL    HW151193   6.427   7.773   6.590 -0.8039 -1.1380  0.6063
16584SOL    HW251194   6.350   7.884   6.659  0.3234 -0.5896  1.0036
16585SOL     OW51195   3.747   6.414   7.354 -0.5832  0.0490 -0.0884
16585SOL    HW151196   3.838   6.417   7.325 -1.3070  0.6461 -2.4232
16585SOL    HW251197   3.741   6.480   7.423  0.4219  1.0279 -0.9222
16586SOL     OW51198   4.826   0.003   7.075 -0.2247  0.5719 -0.0987
16586SOL    HW151199   4.889  -0.063   7.102  0.3039  0.9289 -0.4410
16586SOL    HW251200   4.847   0.080   7.128 -1.4826  0.1834  1.0421
16587SOL     OW51201   5.102   6.039   6.288  0.0059 -0.2276 -0.1530
16587SOL    HW151202   5.099   5.948   6.318 -1.3775 -0.1613 -0.0537
16587SOL    HW251203   5.078   6.035   6.196 -0.8296  0.1118  0.0445
16588SOL     OW51204   4.501   5.150   5.747  0.0407 -0.0015  0.0746
16588SOL    HW151205   4.486   5.070   5.798  0.2727  0.1861  0.4390
16588SOL    HW251206   4.552   5.120   5.672 -0.3912 -0.2949 -0.1055
16589SOL     OW51207   3.990   6.070   6.696  0.2581 -0.3677 -0.0857
16589SOL    HW151208   3.975   6.071   6.601 -2.3075  0.2638  0.2513
16589SOL    HW251209   4.018   6.160   6.716 -1.8502  0.2979  0.0590
16590SOL     OW51210   4.072   6.417   7.569 -0.1668  0.2714  0.1974
16590SOL    HW151211   4.013   6.342   7.557  2.4787 -1.9381  0.0704
16590SOL    HW251212   4.110   6.431   7.482  0.6924  0.5519  0.6116
16591SOL     OW51213   2.569   6.612   5.009 -0.0836 -0.1617 -0.2738
16591SOL    HW151214   2.546   6.682   5.071 -1.9268  0.3154 -1.4353
16591SOL    HW251215   2.645   6.570   5.049 -2.1365 -0.9807  3.2483
16592SOL     OW51216   3.479   7.885   5.782  0.3571 -0.5403  0.3327
16592SOL    HW151217   3.472   7.967   5.830  2.7645 -0.5117  0.7392
16592SOL    HW251218   3.398   7.879   5.733 -0.3411  1.5280  1.1418
16593SOL     OW51219   2.769   4.435   7.689 -0.3580  0.3885 -0.2616
16593SOL    HW151220   2.839   4.396   7.636  0.2984  1.1859 -0.0030
16593SOL    HW251221   2.750   4.519   7.646 -0.7024  0.4694  0.0446
16594SOL     OW51222   4.014   5.787   4.145 -0.2319 -0.0317  0.2836
16594SOL    HW151223   4.058   5.770   4.062  0.0509 -2.1055  0.7999
16594SOL    HW251224   3.971   5.871   4.133  0.6805  0.2111 -1.5791
16595SOL     OW51225   3.837   5.481   7.258  0.2060  0.0964 -0.9006
16595SOL    HW151226   3.758   5.457   7.307  0.4845 -0.4386 -0.7094
16595SOL    HW251227   3.829   5.434   7.175  0.4025 -0.0938 -0.8133
16596SOL     OW51228   3.382   6.554   4.364  0.1265 -0.4703  0.2436
16596SOL    HW151229   3.414   6.556   4.454 -0.4742  0.5366  0.4479
16596SOL    HW251230   3.419   6.632   4.323  0.9697 -1.2929 -0.5987
16597SOL     OW51231   3.561   5.673   8.574  0.3208 -0.2504 -0.0333
16597SOL    HW151232   3.623   5.744   8.557  0.3558 -0.3316 -0.2586
16597SOL    HW251233   3.611   5.593   8.555  1.5360 -0.5838  3.8655
16598SOL     OW51234   5.978   0.170   6.701  0.4756 -0.6119  0.0139
16598SOL    HW151235   5.948   0.194   6.789  0.5216 -0.0171 -0.1267
16598SOL    HW251236   5.904   0.123   6.662 -0.1381  0.4603 -0.1705
16599SOL     OW51237   4.742   5.498   6.991 -0.1959 -0.0455 -0.0291
16599SOL    HW151238   4.700   5.515   6.907 -1.2388 -0.2741  0.4314
16599SOL    HW251239   4.755   5.403   6.993  0.3721  0.0243 -0.1733
16600SOL     OW51240   5.120   5.452   7.836 -0.2442  0.1844  0.3690
16600SOL    HW151241   5.171   5.406   7.770 -0.1939 -1.2179  1.3396
16600SOL    HW251242   5.177   5.456   7.912 -0.4488  1.4144  0.4692
16601SOL     OW51243   2.901   0.045   7.158  0.0130  0.1494 -0.2286
16601SOL    HW151244   2.928  -0.047   7.157  0.2359  0.2072  0.2118
16601SOL    HW251245   2.941   0.081   7.237 -2.4990 -0.1177  1.2653
16602SOL     OW51246   5.768   6.964   8.273  0.2103  0.2274 -0.4326
16602SOL    HW151247   5.699   6.975   8.337  0.4236  1.6798 -0.4149
16602SOL    HW251248   5.723   6.959   8.189  0.0289  0.0813 -0.3261
16603SOL     OW51249   5.246   6.470   5.966  0.3466 -0.5426 -0.6326
16603SOL    HW151250   5.258   6.404   5.898  0.6600 -2.6204  1.3291
16603SOL    HW251251   5.179   6.434   6.023  2.0371 -0.1898  1.6876
16604SOL     OW51252   2.992   5.645   5.665 -0.1832  0.2728  0.0533
16604SOL    HW151253   3.012   5.707   5.595 -1.0739 -0.6525 -1.0568
16604SOL    HW251254   3.073   5.596   5.678  0.0976  0.6993 -0.0646
16605SOL     OW51255   6.318   5.497   7.478  0.1707 -0.1839  0.2598
16605SOL    HW151256   6.347   5.555   7.549 -1.1712  0.2233  0.5007
16605SOL    HW251257   6.249   5.545   7.434 -0.9886 -1.5845  0.4727
16606SOL     OW51258   4.637   6.799   7.449 -0.1224 -0.0305  0.0277
16606SOL    HW151259   4.615   6.882   7.491  1.5769 -0.4157  1.8246
16606SOL    HW251260   4.569   6.787   7.383 -0.8998  2.3527  0.2910
16607SOL     OW51261   3.494   6.125   6.156 -0.2648  0.4638 -0.0508
16607SOL    HW151262   3.523   6.036   6.180 -0.8737  0.4617  0.7336
16607SOL    HW251263   3.557   6.183   6.199  1.8677  0.4442 -2.8524
16608SOL     OW51264   5.356   6.994   6.067  0.0185  0.0587  0.0697
16608SOL    HW151265   5.298   6.983   6.142  1.7601 -1.3502  1.2992
16608SOL    HW251266   5.402   7.076   6.084 -2.3387  1.8446 -1.5261
16609SOL     OW51267   3.912   7.761   6.110  0.0765 -0.1655 -0.5568
16609SOL    HW151268   3.882   7.810   6.034  0.0643 -1.4898 -1.4410
16609SOL    HW251269   3.840   7.766   6.172 -0.3383  0.0726 -1.0449
16610SOL     OW51270   4.411   6.207   5.316 -0.2250  0.4375  0.4097
16610SOL    HW151271   4.438   6.284   5.265  0.2713  0.4825  0.7368
16610SOL    HW251272   4.482   6.193   5.378 -0.9031  0.4850  1.2084
16611SOL     OW51273   6.904   5.216   6.938 -0.1616  0.4557 -0.1726
16611SOL    HW151274   6.950   5.225   7.022 -1.2113  1.6547  0.3061
16611SOL    HW251275   6.936   5.133   6.902 -0.9818 -0.9858  2.2184
16612SOL     OW51276   5.337   0.660   7.376  0.3130  0.3998  0.4301
16612SOL    HW151277   5.317   0.701   7.460  2.0114 -0.0009  1.0625
16612SOL    HW251278   5.431   0.643   7.379 -0.2019 -3.4595  0.2097
16613SOL     OW51279   3.831   5.445   7.741  0.3054  0.0521  0.6317
16613SOL    HW151280   3.796   5.357   7.752  0.2748 -0.5150 -2.9006
16613SOL    HW251281   3.883   5.441   7.661  1.2865  3.0021  0.9756
16614SOL     OW51282   5.311   5.338   7.659 -0.1796  0.4972 -0.1131
16614SOL    HW151283   5.329   5.266   7.598 -0.1219 -0.6810  1.2313
16614SOL    HW251284   5.386   5.396   7.651  0.0305  0.1362 -0.8480
16615SOL     OW51285   3.103   5.008   4.927  0.1810 -0.3917  0.3664
16615SOL    HW151286   3.178   4.956   4.956 -0.3934 -0.5749  1.5640
16615SOL    HW251287   3.125   5.034   4.837  0.8216 -2.0541  0.0154
16616SOL     OW51288   5.156   7.823   8.611  0.4296  0.3543  0.4083
16616SOL    HW151289   5.220   7.894   8.606  1.7890 -0.8339  0.3979
16616SOL    HW251290   5.173   7.770   8.533  0.9079 -1.1755  1.5200
16617SOL     OW51291   4.162   6.789   6.869 -0.1841  0.4132  0.4854
16617SOL    HW151292   4.171   6.694   6.878  0.9405  0.2551 -1.5967
16617SOL    HW251293   4.214   6.826   6.940  1.1608 -0.5735  0.0610
16618SOL     OW51294   4.936   5.373   4.555  0.2294 -0.7847 -0.2170
16618SOL    HW151295   4.905   5.292   4.595 -2.6093  0.8177  1.1717
16618SOL    HW251296   4.970   5.424   4.629  0.1584  0.0220 -0.7275
16619SOL     OW51297   5.006   5.160   5.677  0.6150 -0.5589  0.0612
16619SOL    HW151298   4.973   5.151   5.588  1.3817  0.9276 -0.4158
16619SOL    HW251299   4.942   5.115   5.732 -1.2990  0.7818 -0.9869
16620SOL     OW51300   5.103   5.893   5.670  0.0138 -0.0576  0.1886
16620SOL    HW151301   5.141   5.976   5.700  0.1735 -0.1951  0.3656
16620SOL    HW251302   5.111   5.834   5.745  0.1054 -0.3012 -0.0113
16621SOL     OW51303   3.855   6.900   6.843 -0.0220 -0.1479 -0.3565
16621SOL    HW151304   3.929   6.853   6.881 -0.6021  0.2202  1.3015
16621SOL    HW251305   3.806   6.933   6.918 -2.2197 -0.8934 -1.3712
16622SOL     OW51306   5.996   6.798   6.822  0.1107  0.0111 -0.1333
16622SOL    HW151307   6.019   6.889   6.837  1.4966 -0.4905  1.0066
16622SOL    HW251308   5.922   6.781   6.880  1.5919 -0.2836  1.7445
16623SOL     OW51309   5.286   4.585   5.864  0.2964 -0.2321 -0.2663
16623SOL    HW151310   5.233   4.664   5.854 -0.3836 -0.7569 -0.8571
16623SOL    HW251311   5.280   4.540   5.780 -0.7278 -1.7672  0.5904
16624SOL     OW51312   5.690   7.534   6.155  0.0800 -0.0531 -0.3689
16624SOL    HW151313   5.724   7.601   6.214 -0.7684 -0.0994  0.1940
16624SOL    HW251314   5.748   7.459   6.169 -0.5700 -0.3420  1.0437
16625SOL     OW51315   5.016   4.945   7.183 -0.3135  0.0328  0.2386
16625SOL    HW151316   5.041   4.912   7.097  0.0791  0.7458  0.0704
16625SOL    HW251317   5.064   4.890   7.245 -0.1298 -0.0975 -0.0196
16626SOL     OW51318   5.725   7.640   4.183 -0.0360  0.1533  0.3789
16626SOL    HW151319   5.799   7.692   4.152  0.9574 -2.0207 -1.1171
16626SOL    HW251320   5.764   7.561   4.220 -1.5288  0.1380  2.0778
16627SOL     OW51321   3.826   6.503   6.838 -0.1041 -0.0476 -0.4975
16627SOL    HW151322   3.798   6.555   6.763 -1.2784  1.2320  0.7618
16627SOL    HW251323   3.804   6.557   6.914  0.1542 -1.6997  0.8093
16628SOL     OW51324   3.282   6.931   6.392  0.4156 -0.2925 -0.4419
16628SOL    HW151325   3.284   6.897   6.481  0.1599  2.6032  0.7787
16628SOL    HW251326   3.354   6.994   6.389 -1.0377  1.3861 -1.5010
16629SOL     OW51327   3.354   6.393   9.568 -0.1571 -0.5624  0.6847
16629SOL    HW151328   3.304   6.341   9.505  0.4389 -0.8056  0.3919
16629SOL    HW251329   3.392   6.328   9.628  1.7835 -0.6610 -0.5362
16630SOL     OW51330   4.176   5.304   8.136  0.3351  0.1793 -0.3409
16630SOL    HW151331   4.270   5.319   8.132  0.5736 -1.2257 -0.9054
16630SOL    HW251332   4.140   5.355   8.064  0.9734 -1.0305 -1.5705
16631SOL     OW51333   3.330   5.034   7.071 -0.2788  0.0395 -0.9311
16631SOL    HW151334   3.352   4.963   7.131 -0.9560 -0.2574 -1.0269
16631SOL    HW251335   3.400   5.033   7.006 -0.6886 -1.0745 -1.3945
16632SOL     OW51336   5.472   6.393   9.136  0.2943 -0.3539  0.2849
16632SOL    HW151337   5.549   6.387   9.194  0.2833 -0.4916  0.2858
16632SOL    HW251338   5.508   6.417   9.051  0.4233 -1.1667  0.0996
16633SOL     OW51339   5.106   5.558   7.352 -0.2350  0.2219 -0.0956
16633SOL    HW151340   5.065   5.494   7.294 -3.1291  1.4850  0.3812
16633SOL    HW251341   5.068   5.541   7.438  0.6349  1.1746  0.5072
16634SOL     OW51342   3.819   6.121   8.613 -0.1306  0.2165 -0.3281
16634SOL    HW151343   3.799   6.214   8.615  0.2390  0.2928  0.4501
16634SOL    HW251344   3.912   6.117   8.593 -0.1468  0.0187 -0.3626
16635SOL     OW51345   3.661   5.597   6.592  0.1213 -0.1397  0.5669
16635SOL    HW151346   3.712   5.555   6.661 -1.3021 -0.1027  1.6888
16635SOL    HW251347   3.576   5.614   6.632 -0.7028  0.0173 -1.1612
16636SOL     OW51348   3.525   6.542   8.290 -0.2848  0.6142 -0.5854
16636SOL    HW151349   3.531   6.447   8.288 -0.4517  0.6007 -0.4995
16636SOL    HW251350   3.574   6.568   8.368 -1.0440  0.5289 -0.0682
16637SOL     OW51351   3.540   6.419   6.924  0.3392  0.3463  0.4723
16637SOL    HW151352   3.506   6.478   6.857  0.4528  0.5045  0.5525
16637SOL    HW251353   3.559   6.477   6.998  0.8972  0.2763  0.3862
16638SOL     OW51354   6.329   6.557  10.024  0.5182  0.1249 -0.1394
16638SOL    HW151355   6.368   6.610  10.094  2.8368  1.5296 -2.2999
16638SOL    HW251356   6.318   6.619   9.952  0.7283 -1.7688 -1.8845
16639SOL     OW51357   3.287   7.950   5.489  0.4703  0.2387  0.4336
16639SOL    HW151358   3.272   7.867   5.536  0.3043 -0.4685 -0.8276
16639SOL    HW251359   3.199   7.986   5.477  0.3997 -0.1902 -0.3898
16640SOL     OW51360   5.999   0.838  10.762 -0.3265 -0.2427 -0.0096
16640SOL    HW151361   6.006   0.859  10.668  0.0182  1.7944  0.4158
16640SOL    HW251362   5.913   0.798  10.771  0.0721 -1.4726 -1.3540
16641SOL     OW51363   5.071   6.468   9.522  0.0208  0.0579 -0.2560
16641SOL    HW151364   5.154   6.454   9.477  0.8327 -0.3950  1.3043
16641SOL    HW251365   5.078   6.556   9.558 -0.2273  0.0605 -0.2122
16642SOL     OW51366   5.677   5.767   6.829  0.3606 -0.5118 -0.1185
16642SOL    HW151367   5.627   5.727   6.900 -2.4899 -0.2836 -1.8583
16642SOL    HW251368   5.677   5.860   6.849  2.0289 -0.6918  0.9534
16643SOL     OW51369   3.364   7.148   6.668  0.1006 -0.2931 -0.1513
16643SOL    HW151370   3.312   7.193   6.601 -0.1358 -0.2406  0.0641
16643SOL    HW251371   3.454   7.150   6.634 -0.2338 -1.6658 -1.2218
16644SOL     OW51372   4.800   7.280   9.438 -0.1254  0.3220 -0.1693
16644SOL    HW151373   4.788   7.210   9.501 -0.5474  0.2167 -0.3694
16644SOL    HW251374   4.895   7.282   9.423 -0.1624 -0.5694 -0.5838
16645SOL     OW51375   4.526   5.374  10.061  0.2239  0.0091  0.1027
16645SOL    HW151376   4.445   5.333  10.091 -0.4968  0.5194 -1.0552
16645SOL    HW251377   4.591   5.304  10.060 -0.1969 -0.4032  1.0565
16646SOL     OW51378   3.269   6.117  10.293  0.1911 -0.7222 -0.0043
16646SOL    HW151379   3.356   6.127  10.332 -1.0273 -1.8687  3.3904
16646SOL    HW251380   3.273   6.033  10.247  0.2818 -2.0463  2.2698
16647SOL     OW51381   4.235   6.783   8.628  0.2316  0.2713 -0.1605
16647SOL    HW151382   4.222   6.786   8.722  0.1263  0.5053 -0.1816
16647SOL    HW251383   4.283   6.701   8.612  0.8827  0.5797  0.1747
16648SOL     OW51384   4.838   7.244   7.904 -0.1088  0.2303 -0.2868
16648SOL    HW151385   4.813   7.165   7.953  1.3080  0.9990  1.8133
16648SOL    HW251386   4.761   7.300   7.910 -0.3873 -0.1711  0.0399
16649SOL     OW51387   5.638   4.867   9.713 -0.2844 -0.1075  0.9465
16649SOL    HW151388   5.566   4.926   9.735  0.0107  0.1666  1.1780
16649SOL    HW251389   5.639   4.867   9.617 -0.0108  0.6136  0.9383
16650SOL     OW51390   3.210   5.127   7.370  0.1119 -0.2556 -0.0072
16650SOL    HW151391   3.226   5.039   7.336  0.1435 -0.1497 -0.2695
16650SOL    HW251392   3.295   5.157   7.401  0.2769  0.0162 -0.7108
16651SOL     OW51393   3.425   7.913   8.033 -0.4211 -0.1378  0.8131
16651SOL    HW151394   3.451   7.909   8.125 -2.1099  0.3672  1.3632
16651SOL    HW251395   3.329   7.903   8.035 -0.5648  0.5953 -0.8298
16652SOL     OW51396   5.489   5.187   8.240  0.0848 -0.6007  0.3384
16652SOL    HW151397   5.528   5.147   8.162 -1.0173 -0.9288 -0.0570
16652SOL    HW251398   5.399   5.207   8.215 -0.8447 -2.2856  2.0025
16653SOL     OW51399   3.627   7.187   8.697 -0.0553 -0.1369 -0.0201
16653SOL    HW151400   3.627   7.207   8.790  1.4524 -2.1032  0.4766
16653SOL    HW251401   3.715   7.154   8.679 -0.1397  0.6671 -2.2763
16654SOL     OW51402   3.402   6.190   9.218 -0.2028 -0.4103 -0.3096
16654SOL    HW151403   3.454   6.178   9.298 -1.4590  0.9084  0.7712
16654SOL    HW251404   3.325   6.239   9.247 -1.1476 -0.6933 -2.1907
16655SOL     OW51405   4.414   4.826   9.361 -0.5011 -0.2769 -0.3414
16655SOL    HW151406   4.397   4.771   9.285 -0.7425 -0.7138  0.0251
16655SOL    HW251407   4.506   4.851   9.352  0.3182 -2.6038  0.6456
16656SOL     OW51408   4.292   7.236   9.726 -0.5766 -0.2443  0.2019
16656SOL    HW151409   4.288   7.325   9.761 -0.6194  0.6367 -1.9075
16656SOL    HW251410   4.383   7.225   9.698 -0.3259 -1.2625  1.3070
16657SOL     OW51411   3.503   5.483   7.799  0.3927  0.1653 -0.4704
16657SOL    HW151412   3.547   5.543   7.860 -0.9282 -0.8967  1.6743
16657SOL    HW251413   3.426   5.532   7.768  0.6522  0.4407 -0.6856
16658SOL     OW51414   6.254   5.800   7.145  0.2004 -0.0006 -0.2946
16658SOL    HW151415   6.212   5.724   7.104 -1.0395  0.3205  0.3236
16658SOL    HW251416   6.189   5.832   7.208  0.0618  2.4580 -1.5765
16659SOL     OW51417   6.661   7.072   8.487 -0.2541  0.3586 -0.0742
16659SOL    HW151418   6.725   7.122   8.537 -0.5117  0.0144  0.6141
16659SOL    HW251419   6.651   7.120   8.405  0.8610  0.4302 -0.1843
16660SOL     OW51420   6.084   0.483   9.948  0.0607 -0.3529 -0.6496
16660SOL    HW151421   6.169   0.495   9.990  0.3063  0.3466 -1.3133
16660SOL    HW251422   6.031   0.556   9.979 -0.0787 -0.4053 -0.7618
16661SOL     OW51423   3.537   5.264   9.455 -0.5872  0.0146 -0.0773
16661SOL    HW151424   3.453   5.291   9.417  0.0545  3.6302  0.6433
16661SOL    HW251425   3.582   5.218   9.384 -2.8618 -1.3971 -0.6776
16662SOL     OW51426   5.603   7.535   9.616 -0.6293  0.1257  0.1537
16662SOL    HW151427   5.545   7.609   9.633 -2.5313 -1.5380  1.3275
16662SOL    HW251428   5.574   7.467   9.677  2.8121 -0.7241  1.0270
16663SOL     OW51429   4.305   7.016   8.026  0.6275  0.4889 -0.0499
16663SOL    HW151430   4.304   6.994   8.119  0.9654  0.3414 -0.0797
16663SOL    HW251431   4.230   7.074   8.014  0.3193  0.1545  0.2277
16664SOL     OW51432   3.853   5.974   6.915 -0.4085 -0.4956 -0.3088
16664SOL    HW151433   3.800   6.053   6.923 -2.0765 -1.4940 -0.9441
16664SOL    HW251434   3.891   5.979   6.827 -1.2283 -0.8071 -0.6874
16665SOL     OW51435   4.039   6.057   8.016 -0.1255 -0.2578 -0.1810
16665SOL    HW151436   3.970   6.099   7.965  0.4674  1.1563  0.1309
16665SOL    HW251437   4.118   6.106   7.994  0.3208 -0.2668  1.3151
16666SOL     OW51438   3.269   6.214   8.840  0.3797 -0.3179 -0.3220
16666SOL    HW151439   3.296   6.292   8.888  3.3829 -1.9190  0.8769
16666SOL    HW251440   3.279   6.237   8.748  0.7036  0.8822 -0.0035
16667SOL     OW51441   5.019   5.377   7.099  0.2612 -0.7264  0.3588
16667SOL    HW151442   4.980   5.432   7.032 -0.8216 -1.9728 -0.0947
16667SOL    HW251443   4.944   5.346   7.151  0.6096 -3.0266 -0.3884
16668SOL     OW51444   4.220   5.723   9.382 -0.4762 -0.4247  0.6801
16668SOL    HW151445   4.154   5.761   9.324 -1.4993 -1.2731  1.2521
16668SOL    HW251446   4.211   5.773   9.464  1.4709  1.2774 -0.0576
16669SOL     OW51447   7.348   7.367   8.956  0.2351 -0.3075 -0.0799
16669SOL    HW151448   7.427   7.411   8.986 -0.1218  0.1337  0.2227
16669SOL    HW251449   7.276   7.415   8.997 -0.2948  0.5530 -1.9317
16670SOL     OW51450   3.957   6.762   9.031 -0.1543  0.2456  0.8110
16670SOL    HW151451   3.954   6.705   9.107  0.9947 -1.1152 -0.1025
16670SOL    HW251452   3.949   6.851   9.066  2.5197 -0.1728  2.7600
16671SOL     OW51453   3.622   5.251   7.179  0.0934 -0.0636  0.1257
16671SOL    HW151454   3.572   5.251   7.098 -0.0714 -3.0758  0.0974
16671SOL    HW251455   3.689   5.183   7.165 -0.1299 -0.8827  2.5802
16672SOL     OW51456   2.583   4.507   7.322 -0.1785 -0.7725  0.6105
16672SOL    HW151457   2.677   4.501   7.341 -0.2106 -3.2907  0.3679
16672SOL    HW251458   2.575   4.583   7.265  1.5963 -0.0341  1.2690
16673SOL     OW51459   0.825   7.146   9.047 -0.3318 -0.0730 -0.0033
16673SOL    HW151460   0.809   7.195   8.967 -0.3335 -0.3674 -0.1873
16673SOL    HW251461   0.794   7.203   9.117 -0.4413  0.1381 -0.2220
16674SOL     OW51462   5.650   6.528   6.953  0.2179 -0.0094 -0.1360
16674SOL    HW151463   5.694   6.538   6.869 -0.8930  1.1970 -0.6287
16674SOL    HW251464   5.563   6.494   6.930  0.5104 -1.4127  0.7132
16675SOL     OW51465   3.614   6.527   9.151 -0.2695 -0.1797  0.5205
16675SOL    HW151466   3.603   6.443   9.107  0.1260 -0.4028  0.8383
16675SOL    HW251467   3.703   6.526   9.184 -0.2024  0.4410  0.3848
16676SOL     OW51468   5.292   0.643   9.224  0.2530  0.2147 -0.4850
16676SOL    HW151469   5.386   0.638   9.209  0.0783 -2.1362 -1.3686
16676SOL    HW251470   5.282   0.640   9.319  1.0614  1.0600 -0.3619
16677SOL     OW51471   3.348   6.755   8.568 -0.0769 -0.5846  0.3627
16677SOL    HW151472   3.317   6.673   8.530 -0.0212 -0.2928 -0.3221
16677SOL    HW251473   3.277   6.785   8.624 -0.0279 -1.1862  0.7541
16678SOL     OW51474   4.638   7.350   9.244 -0.3152  0.5628 -0.3960
16678SOL    HW151475   4.679   7.418   9.190  0.6628 -0.2637 -0.7076
16678SOL    HW251476   4.690   7.348   9.324 -0.2377  0.0524 -0.4598
16679SOL     OW51477   3.241   5.885  10.143 -0.7214 -0.2466 -0.0271
16679SOL    HW151478   3.322   5.846  10.174  0.1829  2.7106  1.7304
16679SOL    HW251479   3.220   5.837  10.063  2.3547 -1.5849 -0.1625
16680SOL     OW51480   4.368   6.703   7.085 -0.0404  0.1759  0.0998
16680SOL    HW151481   4.367   6.712   7.180  0.7310  0.8228  0.0629
16680SOL    HW251482   4.391   6.612   7.069 -0.5968 -0.0408  0.5354
16681SOL     OW51483   5.838   0.379   8.799  0.2678 -0.5510  0.2053
16681SOL    HW151484   5.771   0.397   8.865  0.3162  0.7453 -0.0753
16681SOL    HW251485   5.890   0.308   8.837 -1.2661 -1.6101  0.4025
16682SOL     OW51486   4.465   5.278   7.284 -0.2589 -0.0778 -0.4231
16682SOL    HW151487   4.496   5.259   7.196  2.4117  0.2135  0.3638
16682SOL    HW251488   4.375   5.307   7.272  0.1003  0.2044 -3.0664
16683SOL     OW51489   5.210   6.132   7.164  0.5265 -0.1631  0.4797
16683SOL    HW151490   5.198   6.112   7.071  0.1296  0.4836  0.3864
16683SOL    HW251491   5.128   6.106   7.205  0.6678 -0.3648  0.6328
16684SOL     OW51492   3.189   5.979   9.088  0.3409  0.0712 -0.4143
16684SOL    HW151493   3.252   5.911   9.112  1.0504  0.5974 -0.7396
16684SOL    HW251494   3.244   6.052   9.058 -0.2585  1.6498  2.0613
16685SOL     OW51495   4.864   6.913   8.386  0.2232  0.0935  0.5181
16685SOL    HW151496   4.860   6.818   8.396 -1.0758  0.0552 -0.1689
16685SOL    HW251497   4.801   6.946   8.450 -0.8400  0.3573 -0.6241
16686SOL     OW51498   3.604   5.607   9.142 -0.7684  0.1950  0.2573
16686SOL    HW151499   3.521   5.588   9.184 -2.1155  1.5666 -1.5897
16686SOL    HW251500   3.583   5.613   9.049  1.4265  0.5318 -0.2847
16687SOL     OW51501   5.305   5.739   7.580 -0.0643 -0.2482  0.2808
16687SOL    HW151502   5.356   5.668   7.620  0.1903  0.0559  0.5080
16687SOL    HW251503   5.361   5.773   7.511 -0.7845 -1.2194 -0.8040
16688SOL     OW51504   3.780   6.649   8.830  0.8287  0.3408  0.1598
16688SOL    HW151505   3.707   6.704   8.803 -0.7929 -0.8951  1.7622
16688SOL    HW251506   3.837   6.707   8.880 -0.9257  0.5906  1.9591
16689SOL     OW51507   5.148   5.777   7.183 -0.3576  0.3519  0.3913
16689SOL    HW151508   5.146   5.729   7.266 -1.8431 -0.2708  0.0304
16689SOL    HW251509   5.101   5.858   7.200  1.5465  1.4120  0.8104
16690SOL     OW51510   3.609   5.201  10.365 -0.0384 -0.3671  0.1661
16690SOL    HW151511   3.607   5.106  10.370  0.5669 -0.3262  2.6517
16690SOL    HW251512   3.559   5.230  10.442  0.6752  1.2964  0.0531
16691SOL     OW51513   4.296   6.818   7.832  0.0065  0.1089 -0.0435
16691SOL    HW151514   4.292   6.765   7.911  1.7887  1.6781  1.1898
16691SOL    HW251515   4.354   6.891   7.855  0.0009  1.0051 -2.5698
16692SOL     OW51516   4.168   5.185   7.523  0.0577 -0.0034 -0.5260
16692SOL    HW151517   4.077   5.155   7.528  0.6793 -1.7845  2.8476
16692SOL    HW251518   4.190   5.181   7.430 -2.4956 -2.0809 -1.1477
16693SOL     OW51519   5.931   4.619  10.959  0.3571  0.2331 -0.2751
16693SOL    HW151520   6.021   4.652  10.971  0.3865  0.5429 -1.2672
16693SOL    HW251521   5.880   4.666  11.025  0.5123  1.8909 -1.2698
16694SOL     OW51522   4.176   5.489   8.392  0.3414 -0.2813  0.1058
16694SOL    HW151523   4.136   5.494   8.478  0.1804 -0.6113  0.0550
16694SOL    HW251524   4.162   5.398   8.365  2.2858 -0.7944  0.6485
16695SOL     OW51525   4.353   6.147   9.304  0.5591  0.3224 -0.5379
16695SOL    HW151526   4.353   6.139   9.208 -0.2427  0.9636 -0.5982
16695SOL    HW251527   4.278   6.095   9.332  0.3860  0.7020 -0.3041
16696SOL     OW51528   5.093   6.959  11.578  0.2484  0.6658 -0.1966
16696SOL    HW151529   5.144   7.000  11.648 -1.4165  0.2549  1.3389
16696SOL    HW251530   5.151   6.892  11.543  1.6294  1.7938 -0.1850
16697SOL     OW51531   4.647   5.191   6.563  0.1036  0.0539  0.5664
16697SOL    HW151532   4.570   5.155   6.607  0.4374  0.4002  1.4695
16697SOL    HW251533   4.695   5.114   6.532 -0.4353 -0.1739  0.2813
16698SOL     OW51534   5.808   5.181   7.197 -0.1016 -0.0843  0.1041
16698SOL    HW151535   5.853   5.108   7.238  1.0754  0.0190 -0.9503
16698SOL    HW251536   5.827   5.172   7.104 -0.4112  1.2266 -0.1084
16699SOL     OW51537   4.508   5.251   7.554  0.6825  0.0295  0.5627
16699SOL    HW151538   4.486   5.244   7.461 -0.0164 -0.4182  0.7536
16699SOL    HW251539   4.500   5.344   7.574  0.5119  0.0841  0.2520
16700SOL     OW51540   2.577   6.177   5.806 -0.0688  0.1005  1.5136
16700SOL    HW151541   2.558   6.160   5.713  2.7139 -0.1463  0.8889
16700SOL    HW251542   2.586   6.090   5.844 -0.8226  0.2092  1.9644
16701SOL     OW51543   5.979   7.407   8.019 -0.1253 -0.1210  0.0666
16701SOL    HW151544   5.930   7.476   7.974 -0.6109 -0.0861  0.6366
16701SOL    HW251545   6.021   7.358   7.949 -0.5042  0.2061 -0.3978
16702SOL     OW51546   1.612   5.491   6.804 -0.4037 -0.4195  0.2374
16702SOL    HW151547   1.686   5.553   6.798  0.3216 -1.1095  1.5818
16702SOL    HW251548   1.535   5.543   6.781  0.3882  0.5528 -0.2902
16703SOL     OW51549   2.383   5.384   6.937 -0.6137  0.1226  0.1430
16703SOL    HW151550   2.367   5.478   6.940 -1.9235 -0.0902  1.1044
16703SOL    HW251551   2.295   5.345   6.937 -0.1424 -1.0969 -1.9432
16704SOL     OW51552   5.352   6.066   8.522 -0.4712 -0.0770  0.4188
16704SOL    HW151553   5.421   6.018   8.477  0.3901  0.4802  1.1125
16704SOL    HW251554   5.310   6.118   8.454  1.2447  1.2650  0.3243
16705SOL     OW51555   4.718   1.464   8.778 -0.2393  0.1449 -0.0141
16705SOL    HW151556   4.763   1.470   8.862 -1.6252  0.8329  0.7069
16705SOL    HW251557   4.671   1.547   8.769  0.4755  0.4046 -1.8392
16706SOL     OW51558   3.032   6.287   8.390  0.5095  0.1604  0.0102
16706SOL    HW151559   3.047   6.252   8.302  0.2814 -1.0345  0.4338
16706SOL    HW251560   3.055   6.216   8.449 -0.5661  0.4961  0.8821
16707SOL     OW51561   3.310   6.778   7.332  0.1964  0.1800  0.3581
16707SOL    HW151562   3.370   6.789   7.406 -0.5553  0.4542  0.9432
16707SOL    HW251563   3.233   6.830   7.355 -0.8760 -1.3004  0.3245
16708SOL     OW51564   5.831   6.003   7.148  0.6839  0.4016 -0.4265
16708SOL    HW151565   5.798   5.991   7.059 -0.1803  0.0928 -0.0758
16708SOL    HW251566   5.763   6.054   7.192  0.6427 -0.2824  0.3225
16709SOL     OW51567   3.532   5.997   7.929 -0.3442 -0.2985 -0.1122
16709SOL    HW151568   3.564   6.023   7.842 -0.3904 -1.9361 -0.6533
16709SOL    HW251569   3.490   5.912   7.915 -2.3159  0.4013  1.1246
16710SOL     OW51570   3.145   6.554   8.550 -0.0146 -0.1477  0.3860
16710SOL    HW151571   3.149   6.587   8.639  0.6891 -0.5401  0.5026
16710SOL    HW251572   3.060   6.585   8.517  0.2010  0.9170  0.8124
16711SOL     OW51573   4.307   5.331   7.811  0.3789  0.2397  0.1597
16711SOL    HW151574   4.225   5.366   7.848  1.4480 -0.0204  3.0759
16711SOL    HW251575   4.375   5.388   7.846  1.5357  0.1762 -1.8420
16712SOL     OW51576   2.688   6.659   7.795 -0.8350  1.0590  0.6034
16712SOL    HW151577   2.734   6.614   7.866 -3.0503  0.7371  1.9352
16712SOL    HW251578   2.699   6.602   7.719 -0.8995 -0.1439  1.4671
16713SOL     OW51579   6.611   0.167   6.377 -0.4999  0.1024 -0.3202
16713SOL    HW151580   6.601   0.231   6.447  0.3572  0.0353 -0.1148
16713SOL    HW251581   6.529   0.119   6.375 -0.4081 -0.1387  0.8972
16714SOL     OW51582   4.145   5.993   8.522  0.0635  0.1166  0.1794
16714SOL    HW151583   4.126   6.079   8.558  2.0716  0.1412  1.3560
16714SOL    HW251584   4.107   5.931   8.584  0.8934  0.1829  0.7830
16715SOL     OW51585   7.004   5.879   6.543  0.0839 -0.1734  0.3297
16715SOL    HW151586   7.003   5.897   6.637 -2.0538 -0.2104  0.3842
16715SOL    HW251587   7.002   5.783   6.536  2.0137 -0.2324  0.1873
16716SOL     OW51588   5.050   7.482   7.370 -0.3681  0.4729 -0.3674
16716SOL    HW151589   5.050   7.546   7.299 -0.6290  0.8959  0.0041
16716SOL    HW251590   4.971   7.430   7.357 -0.1508  0.2156 -0.6763
16717SOL     OW51591   4.735   5.799   7.317  0.3208  0.4380 -0.4577
16717SOL    HW151592   4.690   5.785   7.400  0.9406  0.1161 -0.1685
16717SOL    HW251593   4.796   5.870   7.335 -1.3635  2.1812 -1.3626
16718SOL     OW51594   5.329   6.193   7.532  0.1380 -0.3887  0.0139
16718SOL    HW151595   5.254   6.137   7.554  0.2920 -0.3828  0.5666
16718SOL    HW251596   5.365   6.154   7.452 -0.2833 -0.5582 -0.0978
16719SOL     OW51597   4.437   6.542   6.670  0.0614  0.1603 -0.1698
16719SOL    HW151598   4.463   6.630   6.697 -1.4195  0.4490  0.4287
16719SOL    HW251599   4.383   6.509   6.743 -1.1201 -0.4197 -1.2663
16720SOL     OW51600   5.681   7.128   8.725  0.1328 -0.0488  0.0746
16720SOL    HW151601   5.730   7.169   8.796  1.4142 -0.7384 -0.3857
16720SOL    HW251602   5.671   7.197   8.660 -1.2719  0.6657  0.9838
16721SOL     OW51603   3.909   7.577   8.626  0.4295  0.1428  0.2366
16721SOL    HW151604   3.947   7.617   8.548 -1.1891 -1.3774 -1.4532
16721SOL    HW251605   3.870   7.495   8.594 -2.8768  0.8241  2.0052
16722SOL     OW51606   5.283   1.238   8.880 -0.1274 -0.5832  0.6052
16722SOL    HW151607   5.227   1.165   8.906  0.6083 -0.3005  3.3095
16722SOL    HW251608   5.242   1.314   8.920 -0.5010  0.4509 -1.6140
16723SOL     OW51609   5.308   6.988   7.529  0.2531  0.0798  0.5971
16723SOL    HW151610   5.401   7.000   7.547  0.2545 -0.4993  1.0045
16723SOL    HW251611   5.303   6.972   7.435  0.2404  3.2899 -0.0645
16724SOL     OW51612   5.783   0.028   9.220  0.0445  0.1863  0.5760
16724SOL    HW151613   5.857   0.014   9.279  0.1664  0.7617  0.5673
16724SOL    HW251614   5.706   0.004   9.272  0.0688  1.5852  1.3192
16725SOL     OW51615   4.925   4.344   8.478 -0.1213 -0.6075  0.1672
16725SOL    HW151616   4.834   4.348   8.508  0.0436 -0.5429  0.6702
16725SOL    HW251617   4.920   4.357   8.383 -0.5627  0.2430  0.3010
16726SOL     OW51618   5.420   7.050   8.789 -0.0226 -0.3928 -0.0132
16726SOL    HW151619   5.422   7.100   8.871 -1.5656  0.0594 -0.2069
16726SOL    HW251620   5.510   7.050   8.758  0.0664  2.2021  0.0468
16727SOL     OW51621   5.055   7.646   6.716 -0.1481 -0.1086  0.0865
16727SOL    HW151622   5.040   7.618   6.626  0.6857 -0.3309  0.0130
16727SOL    HW251623   4.974   7.692   6.741 -0.5173 -0.3534 -0.6487
16728SOL     OW51624   3.712   5.498  10.249  0.3319  0.3838 -0.6518
16728SOL    HW151625   3.744   5.587  10.266  0.9925  0.0676 -0.1688
16728SOL    HW251626   3.742   5.448  10.325  0.5677 -0.3944 -1.2558
16729SOL     OW51627   2.698   5.475   7.714 -0.0557  0.1433 -0.3467
16729SOL    HW151628   2.641   5.423   7.771  0.4770  0.4225  0.4604
16729SOL    HW251629   2.777   5.423   7.705 -0.8316 -0.8230 -2.4691
16730SOL     OW51630   3.348   6.980   9.399  0.0290  0.1690 -0.3523
16730SOL    HW151631   3.253   6.968   9.402  0.1300 -0.4981  0.8561
16730SOL    HW251632   3.372   7.007   9.487  0.9311  0.6735 -0.7332
16731SOL     OW51633   4.293   6.433   8.274 -0.0177 -0.0673  0.2786
16731SOL    HW151634   4.384   6.405   8.277  0.3805  1.1890  0.5314
16731SOL    HW251635   4.243   6.352   8.267  1.0866 -0.8103  0.7681
16732SOL     OW51636   4.806   0.184   8.957 -0.2086 -0.2620  0.0769
16732SOL    HW151637   4.846   0.250   9.013  2.9699 -1.4901 -0.5400
16732SOL    HW251638   4.737   0.145   9.010  0.9171  0.4490  2.1577
16733SOL     OW51639   4.635   0.472   6.475  0.2828  0.1640  0.1087
16733SOL    HW151640   4.607   0.558   6.505 -0.1525  0.7444 -1.7696
16733SOL    HW251641   4.686   0.490   6.395  0.2961 -1.2977 -0.2467
16734SOL     OW51642   5.930   7.724   8.805 -0.5246  0.0401  0.1889
16734SOL    HW151643   6.022   7.696   8.803 -0.7460 -0.8288  1.3199
16734SOL    HW251644   5.908   7.742   8.714  0.8265  0.4622 -0.0759
16735SOL     OW51645   5.751   0.352   7.617 -0.6678 -0.0943 -0.0221
16735SOL    HW151646   5.840   0.322   7.637 -0.7294 -2.2591 -2.5600
16735SOL    HW251647   5.694   0.283   7.651 -1.2726  0.3595 -0.1030
16736SOL     OW51648   3.300   6.007   6.748  0.1390 -0.4500  0.0877
16736SOL    HW151649   3.316   6.057   6.668 -0.5001  0.5833  0.5832
16736SOL    HW251650   3.291   5.916   6.718  0.3135 -0.1372 -0.9562
16737SOL     OW51651   4.982   5.678   9.295 -0.1351  0.3713 -0.0087
16737SOL    HW151652   4.959   5.771   9.291 -0.7969  0.1965 -0.4394
16737SOL    HW251653   4.986   5.651   9.203 -2.0585 -0.5314  0.1381
16738SOL     OW51654   3.614   6.899   7.292 -0.3186 -0.5152 -0.6931
16738SOL    HW151655   3.599   6.812   7.328 -0.8969  0.0488  0.4854
16738SOL    HW251656   3.531   6.922   7.250 -0.4041 -0.2486 -0.3814
16739SOL     OW51657   3.007   6.689   8.202 -0.0424 -0.3287  1.2397
16739SOL    HW151658   2.970   6.703   8.289  1.3336  0.1147  1.7896
16739SOL    HW251659   3.089   6.641   8.218  0.6391  0.4569  0.2786
16740SOL     OW51660   3.680   4.924   9.424  0.8743  0.0629  0.3125
16740SOL    HW151661   3.723   4.871   9.356 -2.4478 -0.9826 -1.2126
16740SOL    HW251662   3.649   5.001   9.377  0.3810  0.3816  1.1502
16741SOL     OW51663   2.745   5.930   7.179  0.5639 -0.1535 -0.0230
16741SOL    HW151664   2.784   6.014   7.205 -0.8143  0.1919  1.0353
16741SOL    HW251665   2.769   5.920   7.087  0.5747  1.5178 -0.2302
16742SOL     OW51666   2.842   5.310   7.207 -0.3302  0.0340 -0.7091
16742SOL    HW151667   2.758   5.272   7.180  0.8724 -1.7831 -2.1070
16742SOL    HW251668   2.905   5.279   7.142  1.5066  1.0944  0.4669
16743SOL     OW51669   3.926   7.745   8.400 -0.1836  0.0474 -0.7579
16743SOL    HW151670   4.004   7.698   8.370  0.4850  0.0419  0.8510
16743SOL    HW251671   3.958   7.833   8.420  0.1823 -0.6983  2.6528
16744SOL     OW51672   3.795   6.155   7.908  0.3498  0.3540 -0.2532
16744SOL    HW151673   3.767   6.234   7.863 -0.1066  0.6562  0.5399
16744SOL    HW251674   3.714   6.109   7.930  0.5371  0.3821  0.5460
16745SOL     OW51675   3.773   0.558   8.799  0.1863  0.0252 -0.3440
16745SOL    HW151676   3.699   0.560   8.860 -0.3472  1.7530 -0.9994
16745SOL    HW251677   3.790   0.650   8.777  0.8623 -0.4861 -2.2083
16746SOL     OW51678   5.468   7.970   9.249 -0.0882 -0.3063  0.2842
16746SOL    HW151679   5.414   7.921   9.311 -0.7422 -1.0157 -0.8183
16746SOL    HW251680   5.443   8.061   9.263 -1.9626 -0.6502 -0.5279
16747SOL     OW51681   6.391   7.429   7.790  0.5543  0.2204 -0.0698
16747SOL    HW151682   6.352   7.467   7.869 -0.0790 -1.0866  0.2794
16747SOL    HW251683   6.381   7.497   7.723  1.7036  1.6192  1.1139
16748SOL     OW51684   4.512   5.061   7.842  0.1126  0.5984  0.1730
16748SOL    HW151685   4.546   5.120   7.910  0.0196  2.2229 -1.1433
16748SOL    HW251686   4.583   5.053   7.779  0.1079 -0.7084  0.2996
16749SOL     OW51687   4.815   6.195   8.847 -0.4690  0.3608 -0.0290
16749SOL    HW151688   4.864   6.223   8.924  2.0970 -0.1422 -1.3779
16749SOL    HW251689   4.825   6.100   8.846 -2.1089  0.1516 -0.0062
16750SOL     OW51690   5.132   6.916  10.351  0.2911 -0.1640 -0.2683
16750SOL    HW151691   5.040   6.911  10.325 -0.2170  2.5785  0.6857
16750SOL    HW251692   5.133   6.877  10.439  0.4491 -1.8083 -0.9487
16751SOL     OW51693   6.023   6.808   8.195 -0.6866 -0.3766  0.3520
16751SOL    HW151694   6.020   6.860   8.115 -3.1477 -3.1409 -1.5555
16751SOL    HW251695   5.975   6.860   8.259 -0.1743  1.1288 -0.4519
16752SOL     OW51696   3.142   6.195   9.759 -0.0447  0.2486 -0.3470
16752SOL    HW151697   3.189   6.112   9.749 -0.1279 -0.0641  1.5197
16752SOL    HW251698   3.095   6.206   9.677 -0.9991 -2.1752 -0.1952
16753SOL     OW51699   4.799   5.116   8.173  0.3462 -0.3932 -0.2669
16753SOL    HW151700   4.725   5.135   8.115  0.1168  0.8451  0.3917
16753SOL    HW251701   4.763   5.058   8.240  0.0376 -0.0176 -0.1054
16754SOL     OW51702   4.820   5.883   6.487 -1.0548  0.1319  0.5476
16754SOL    HW151703   4.777   5.957   6.530  0.4517  0.3689  1.7368
16754SOL    HW251704   4.905   5.917   6.460  0.0686 -1.3668  1.9652
16755SOL     OW51705   4.958   7.333   9.072  0.5210 -0.7756 -0.0733
16755SOL    HW151706   4.898   7.407   9.062  0.7223 -0.7750 -1.4398
16755SOL    HW251707   5.042   7.372   9.095  0.0328 -0.7769  1.8697
16756SOL     OW51708   3.618   6.857   7.861  0.3026  0.5785 -0.4285
16756SOL    HW151709   3.646   6.775   7.901  2.5422  1.0414 -0.9171
16756SOL    HW251710   3.694   6.885   7.809 -0.4286  2.9248 -0.3163
16757SOL     OW51711   3.719   7.117   9.977 -0.0797  0.0011  0.7922
16757SOL    HW151712   3.780   7.186  10.002  0.7177 -1.2684  2.5761
16757SOL    HW251713   3.733   7.047  10.042 -0.7182 -1.9246 -1.0111
16758SOL     OW51714   5.748   6.602   8.063  0.2532 -0.4016  0.7044
16758SOL    HW151715   5.705   6.666   8.119 -1.8844 -0.9017 -0.2416
16758SOL    HW251716   5.735   6.518   8.108  1.7552 -0.4038  1.2109
16759SOL     OW51717   5.069   5.836   8.102 -0.2529  0.0435 -0.3606
16759SOL    HW151718   5.015   5.757   8.104  2.0858 -1.6936 -1.4087
16759SOL    HW251719   5.052   5.875   8.016 -1.3905  0.7065  0.1478
16760SOL     OW51720   2.533   6.650   8.110 -0.4607  0.2086  0.3317
16760SOL    HW151721   2.518   6.561   8.081  1.0164  0.8252 -2.7283
16760SOL    HW251722   2.524   6.704   8.032 -0.9614  2.7385  1.9928
16761SOL     OW51723   3.631   5.920   9.455  0.0299 -0.5171  0.2889
16761SOL    HW151724   3.611   5.881   9.540 -0.4189  0.8583  0.8369
16761SOL    HW251725   3.691   5.858   9.414  0.9868 -0.7717  1.9844
16762SOL     OW51726   2.477   6.292   6.036  0.0464  0.1667  0.1788
16762SOL    HW151727   2.535   6.255   5.970  1.8392  0.4205  1.5272
16762SOL    HW251728   2.536   6.322   6.105 -1.7681 -0.8379  2.2882
16763SOL     OW51729   5.131   7.126   8.781  0.0031 -0.4616  0.3665
16763SOL    HW151730   5.225   7.110   8.793 -0.1708 -0.7473  1.4797
16763SOL    HW251731   5.093   7.111   8.868 -1.1206 -0.6421 -0.1381
16764SOL     OW51732   3.999   5.342   8.570  0.7104  0.4531  0.0200
16764SOL    HW151733   3.955   5.304   8.494  3.1077  1.0736 -1.8261
16764SOL    HW251734   4.016   5.268   8.628 -0.3008 -0.2093 -0.5089
16765SOL     OW51735   2.629   4.714  10.211 -0.2031 -0.4276  0.1113
16765SOL    HW151736   2.656   4.805  10.200 -0.7359 -0.4299 -1.5325
16765SOL    HW251737   2.711   4.664  10.202  0.0440 -0.1349  0.7061
16766SOL     OW51738   2.985   5.993   8.723 -0.4039  0.2687  0.3398
16766SOL    HW151739   3.047   6.049   8.677 -0.4111 -0.0387 -0.0544
16766SOL    HW251740   2.966   5.923   8.660  0.6745 -0.9397  1.2999
16767SOL     OW51741   3.734   5.364   8.295  0.5799 -0.8197 -0.2856
16767SOL    HW151742   3.790   5.357   8.218  1.4781 -2.0253  0.4369
16767SOL    HW251743   3.689   5.280   8.300  0.3554 -0.6705  0.3559
16768SOL     OW51744   4.212   5.356   7.233 -0.1530 -0.1770  0.5859
16768SOL    HW151745   4.187   5.375   7.143  0.1398  0.5269  0.6496
16768SOL    HW251746   4.177   5.430   7.284  4.1052  2.3083  0.3921
16769SOL     OW51747   1.574   7.676   9.402 -0.3499 -0.8699  0.3668
16769SOL    HW151748   1.584   7.741   9.471  1.4141 -1.3370  0.5911
16769SOL    HW251749   1.495   7.703   9.355 -0.9201  0.1225  1.8343
16770SOL     OW51750   4.413   5.848   9.887  0.3295  0.3973  0.5136
16770SOL    HW151751   4.501   5.823   9.914  1.1633  0.6728 -1.6797
16770SOL    HW251752   4.357   5.780   9.922  0.8509  1.8060  4.6841
16771SOL     OW51753   4.726   7.262   8.542 -0.3073  0.2086  0.8160
16771SOL    HW151754   4.783   7.330   8.576 -0.3159  1.3535 -1.2627
16771SOL    HW251755   4.773   7.180   8.557  2.0402  1.1249 -0.9926
16772SOL     OW51756   5.487   5.721   7.040 -0.0371  0.0455 -0.7977
16772SOL    HW151757   5.478   5.814   7.060 -0.1831  0.2264 -1.6672
16772SOL    HW251758   5.463   5.677   7.122  0.8148  0.7746 -0.1323
16773SOL     OW51759   2.287   7.145   8.685 -0.5206 -0.1345  0.1189
16773SOL    HW151760   2.371   7.153   8.731 -2.2574 -0.2061  3.6230
16773SOL    HW251761   2.295   7.063   8.636  1.2623 -0.4265  0.8090
16774SOL     OW51762   5.636   7.497   7.292 -0.1258 -0.2711 -0.2255
16774SOL    HW151763   5.650   7.502   7.197  0.1391  0.9001 -0.1488
16774SOL    HW251764   5.542   7.514   7.303  0.1682  1.5447 -0.1924
16775SOL     OW51765   4.803   6.363   7.243 -0.2169 -0.0375  0.0369
16775SOL    HW151766   4.892   6.396   7.241 -0.3494  0.3814  0.6848
16775SOL    HW251767   4.797   6.315   7.326 -0.1892 -1.2435 -0.6376
16776SOL     OW51768   7.076   5.812   7.911  0.0750  0.2007  0.0354
16776SOL    HW151769   7.045   5.861   7.988  0.5909 -0.1938  0.5063
16776SOL    HW251770   7.010   5.744   7.897 -0.2775  0.5833 -0.1836
16777SOL     OW51771   6.574   1.146  10.201  0.1331 -0.6952 -0.1726
16777SOL    HW151772   6.572   1.221  10.261 -2.8870 -2.0200  1.6065
16777SOL    HW251773   6.593   1.071  10.257 -1.8595 -1.8631 -0.9560
16778SOL     OW51774   3.150   5.359   8.924  0.2246  0.0508  0.0198
16778SOL    HW151775   3.235   5.339   8.963  0.4277 -2.3177 -1.4475
16778SOL    HW251776   3.095   5.386   8.998  1.8932  0.4585  1.1705
16779SOL     OW51777   3.400   7.195   7.266 -0.6453  0.0083  0.1431
16779SOL    HW151778   3.307   7.194   7.245 -0.8206  1.0315  0.8225
16779SOL    HW251779   3.407   7.147   7.348 -0.3565 -1.3628 -0.6493
16780SOL     OW51780   5.294   5.459   8.080 -0.0291  0.2927  0.3610
16780SOL    HW151781   5.275   5.369   8.107  1.8917 -0.1108  0.4650
16780SOL    HW251782   5.285   5.510   8.161 -3.3642  0.6594 -0.0970
16781SOL     OW51783   5.446   0.324   8.844  0.1190  0.1107 -0.2655
16781SOL    HW151784   5.514   0.362   8.900 -0.0999 -1.9232  1.5053
16781SOL    HW251785   5.481   0.239   8.819 -0.9951 -0.1686 -0.9437
16782SOL     OW51786   2.974   6.968   7.345 -0.1358 -0.5490  0.3401
16782SOL    HW151787   2.926   6.943   7.266  0.8113  1.1658 -0.8415
16782SOL    HW251788   2.928   6.923   7.416 -2.2181 -0.5863 -0.9472
16783SOL     OW51789   4.830   6.320   6.627  0.1582  0.3828 -0.0544
16783SOL    HW151790   4.751   6.352   6.584  1.2535  2.2200 -0.7930
16783SOL    HW251791   4.881   6.279   6.557  0.9791  1.4698 -0.1134
16784SOL     OW51792   5.372   5.860   8.059  0.5418  0.0372  0.1392
16784SOL    HW151793   5.439   5.808   8.104  1.4228  1.2462  0.2675
16784SOL    HW251794   5.296   5.856   8.117 -0.1448 -2.7424 -0.7837
16785SOL     OW51795   2.324   6.912   7.281  0.9676 -0.0361  0.8185
16785SOL    HW151796   2.272   6.863   7.217  0.2323 -0.7585  1.9343
16785SOL    HW251797   2.385   6.964   7.228  1.8244 -2.1894 -0.4473
16786SOL     OW51798   5.625   6.937   8.032  0.1541  0.5371  0.0897
16786SOL    HW151799   5.532   6.963   8.029  0.1802  0.6173  0.0009
16786SOL    HW251800   5.636   6.879   7.957  0.3080  0.9562 -0.2141
16787SOL     OW51801   4.567   5.285   8.496 -0.3371 -0.0167  0.3309
16787SOL    HW151802   4.511   5.276   8.573 -1.0527  1.2652 -0.0058
16787SOL    HW251803   4.604   5.198   8.482 -1.1543 -0.5504  1.3901
16788SOL     OW51804   3.244   5.931   6.091  0.0846 -0.2855 -0.2523
16788SOL    HW151805   3.296   5.883   6.027  2.4230 -0.4193  1.6092
16788SOL    HW251806   3.301   5.939   6.167 -1.3905  2.6394  0.7004
16789SOL     OW51807   5.711   7.858   6.421 -0.2845  0.3625  0.3534
16789SOL    HW151808   5.615   7.848   6.424 -0.4748  1.1898 -1.5013
16789SOL    HW251809   5.743   7.774   6.390 -0.4878  0.3534  0.1678
16790SOL     OW51810   3.066   7.166   8.583  0.1611 -0.1111  0.1860
16790SOL    HW151811   3.152   7.130   8.606  0.0117 -0.7706 -0.2573
16790SOL    HW251812   3.012   7.146   8.659  0.2871 -0.0859  0.2841
16791SOL     OW51813   7.486   7.811   8.006  0.1032  0.4836  0.1448
16791SOL    HW151814   7.571   7.789   7.967 -0.9552  0.1583 -2.1344
16791SOL    HW251815   7.435   7.730   8.000  0.1796  0.0674  3.3095
16792SOL     OW51816   6.222   6.098   7.424 -0.0177  0.1009 -0.6136
16792SOL    HW151817   6.229   6.106   7.519  0.5556 -1.3271 -0.5014
16792SOL    HW251818   6.161   6.025   7.411  1.4918 -1.1099 -1.2652
16793SOL     OW51819   3.331   6.430   8.969 -0.2346  0.1234 -0.4120
16793SOL    HW151820   3.425   6.430   8.985 -0.4691  0.5891  1.0886
16793SOL    HW251821   3.291   6.446   9.055 -1.7070 -0.8030 -0.8735
16794SOL     OW51822   6.171   0.571   7.997  0.4846  0.4143  0.2374
16794SOL    HW151823   6.184   0.664   7.978  1.8294  0.4647  1.2545
16794SOL    HW251824   6.251   0.529   7.964  0.9896 -0.0333  1.9399
16795SOL     OW51825   4.034   6.307   7.035  0.2384 -0.2729  0.5541
16795SOL    HW151826   3.952   6.294   6.988 -0.1238  0.7753  0.8694
16795SOL    HW251827   4.055   6.220   7.071  1.0545 -1.3703 -2.3148
16796SOL     OW51828   5.044   4.951   9.067 -0.0462  0.1148  0.5897
16796SOL    HW151829   5.077   4.878   9.120 -1.0455 -1.0700 -0.3442
16796SOL    HW251830   5.107   5.021   9.081  0.3488 -0.5286  2.4221
16797SOL     OW51831   4.066   5.817   5.728  0.6817  0.1186 -0.2406
16797SOL    HW151832   4.028   5.849   5.810  0.7105 -0.0577 -0.1566
16797SOL    HW251833   3.993   5.820   5.666  0.1213 -1.5432  0.2714
16798SOL     OW51834   4.502   5.773   9.608 -0.4528 -0.0837 -0.8480
16798SOL    HW151835   4.412   5.788   9.580 -1.0976 -0.4475  0.9147
16798SOL    HW251836   4.501   5.787   9.702  1.3183 -0.2191 -0.7733
16799SOL     OW51837   4.994   7.772   7.545  0.5463 -0.7278 -0.2440
16799SOL    HW151838   5.034   7.740   7.464  1.4177  0.6725 -0.4006
16799SOL    HW251839   4.944   7.697   7.578  0.5509 -1.4753 -1.8224
16800SOL     OW51840   3.584   0.351   8.189  0.3412  0.2553  0.1479
16800SOL    HW151841   3.556   0.432   8.233  0.9413  0.9468 -0.7176
16800SOL    HW251842   3.525   0.284   8.223 -0.9258  1.2673  0.0099
16801SOL     OW51843   3.544   5.483   8.144  0.6583 -0.2263  0.0125
16801SOL    HW151844   3.453   5.456   8.149  1.1289 -2.7271 -2.4347
16801SOL    HW251845   3.583   5.451   8.225 -0.6753  1.4817  1.4186
16802SOL     OW51846   2.366   7.498   6.048 -0.1150 -0.2543 -0.7759
16802SOL    HW151847   2.430   7.459   6.108  2.6182 -0.7412 -3.7278
16802SOL    HW251848   2.362   7.590   6.074  1.6482 -0.2618 -0.3415
16803SOL     OW51849   3.140   7.334   8.381 -0.0642 -0.4002 -0.9492
16803SOL    HW151850   3.103   7.272   8.444  0.3486 -0.1692 -0.4736
16803SOL    HW251851   3.076   7.406   8.378  0.3359  0.0026 -0.1227
16804SOL     OW51852   2.338   5.377   8.529  0.0884 -0.0337  0.3759
16804SOL    HW151853   2.276   5.414   8.467  0.0079  0.3770  0.7010
16804SOL    HW251854   2.313   5.285   8.536 -1.4923  0.4443  1.6790
16805SOL     OW51855   5.428   6.080  12.056 -0.6200  0.4211  0.0993
16805SOL    HW151856   5.436   6.015  12.125 -1.8812  0.3296  0.1855
16805SOL    HW251857   5.500   6.141  12.071  0.5033 -0.8765  0.0896
16806SOL     OW51858   2.774   7.935   8.089  0.1336 -0.5271 -0.3350
16806SOL    HW151859   2.731   7.999   8.146  0.2850  0.1893 -1.0174
16806SOL    HW251860   2.747   7.850   8.124  1.0623 -0.1335  1.4726
16807SOL     OW51861   5.037   7.224   8.303  0.2988 -0.2458  0.3946
16807SOL    HW151862   5.026   7.131   8.322  0.8408 -0.3278  0.3253
16807SOL    HW251863   5.085   7.258   8.379 -2.5004  0.6210  1.9116
16808SOL     OW51864   5.067   6.152   9.547 -0.2734  0.2625  0.4033
16808SOL    HW151865   4.975   6.148   9.521 -0.0232 -0.7982 -0.3746
16808SOL    HW251866   5.086   6.246   9.553 -1.6191  0.5100  1.4334
16809SOL     OW51867   4.299   5.638   8.716 -0.5197 -0.3209 -0.3681
16809SOL    HW151868   4.363   5.639   8.787  0.6169 -0.8045 -1.3488
16809SOL    HW251869   4.273   5.546   8.708 -0.7575 -0.2439 -0.4786
16810SOL     OW51870   6.711   5.125   8.646 -0.4716  0.1324  0.4055
16810SOL    HW151871   6.708   5.201   8.588 -2.2412  1.0431  1.6060
16810SOL    HW251872   6.684   5.158   8.732  1.0283 -1.3920  1.5313
16811SOL     OW51873   3.227   5.211   7.928 -0.2643  0.0486 -0.4075
16811SOL    HW151874   3.309   5.235   7.972  0.6644 -0.5679 -1.7262
16811SOL    HW251875   3.192   5.294   7.898 -1.2766  0.5786  1.9818
16812SOL     OW51876   2.388   5.533   7.563 -0.2179 -0.2201 -0.1888
16812SOL    HW151877   2.378   5.517   7.657 -1.0362 -0.1514 -0.2584
16812SOL    HW251878   2.365   5.625   7.552 -1.6805 -0.6178 -0.6670
16813SOL     OW51879   5.010   5.228   7.682  0.1107  0.1228  0.4044
16813SOL    HW151880   5.010   5.323   7.696 -0.8595  0.3659 -0.9962
16813SOL    HW251881   5.065   5.216   7.604  0.2383 -0.4637  0.5808
16814SOL     OW51882   5.966   4.560   7.424  0.7132  0.0214  0.1300
16814SOL    HW151883   5.998   4.589   7.338  0.4014 -0.4483 -0.1475
16814SOL    HW251884   6.007   4.620   7.486 -2.6919  3.5537 -0.6253
16815SOL     OW51885   4.844   5.415   7.955  0.0701 -0.6481 -0.0211
16815SOL    HW151886   4.916   5.380   7.903  0.5346  2.7447 -1.9900
16815SOL    HW251887   4.885   5.443   8.037  0.0901 -2.4657  0.6398
16816SOL     OW51888   3.959   7.180   8.269 -0.2002 -0.0199 -0.3441
16816SOL    HW151889   3.867   7.165   8.247 -0.1103 -0.3104 -0.5285
16816SOL    HW251890   3.989   7.096   8.303  0.8712 -0.9647 -3.3053
16817SOL     OW51891   6.965   6.568   7.256  0.1774 -0.6339 -0.2087
16817SOL    HW151892   6.899   6.594   7.321  0.0891  1.2191 -0.9760
16817SOL    HW251893   6.950   6.475   7.243 -0.4155 -0.8529  1.7375
16818SOL     OW51894   2.520   7.116   8.883 -0.3075 -0.0499 -0.0146
16818SOL    HW151895   2.486   7.204   8.899  1.0190  0.4740  0.0664
16818SOL    HW251896   2.602   7.113   8.933 -1.0781 -1.8708  1.2487
16819SOL     OW51897   3.145   0.480   8.386  0.1491 -0.5716  0.5784
16819SOL    HW151898   3.064   0.513   8.347  0.2707  1.1501  1.6804
16819SOL    HW251899   3.165   0.542   8.456  2.3475 -1.0298  0.4358
16820SOL     OW51900   3.905   0.104   8.678 -0.2102  0.1743 -0.3182
16820SOL    HW151901   3.977   0.082   8.736 -1.8457 -0.3805  1.6252
16820SOL    HW251902   3.897   0.199   8.683 -2.1603 -0.0198  2.8639
16821SOL     OW51903   5.273   4.904   7.341 -0.9302  0.1257  0.0669
16821SOL    HW151904   5.356   4.897   7.293 -0.3623  0.8259  0.9192
16821SOL    HW251905   5.265   4.820   7.387 -1.6769 -0.7128 -1.5130
16822SOL     OW51906   3.309   6.034   7.621  0.6788  0.2604 -0.1036
16822SOL    HW151907   3.384   5.979   7.600  1.0420  0.3726  0.8510
16822SOL    HW251908   3.233   5.986   7.588  1.0333 -0.5609  0.2789
16823SOL     OW51909   4.466   7.329   7.031  0.1923 -0.2354  0.9417
16823SOL    HW151910   4.533   7.337   6.963 -0.7411  0.3498  0.0475
16823SOL    HW251911   4.458   7.417   7.067 -3.1691  0.9544 -2.0795
16824SOL     OW51912   3.838   5.746  10.045  0.1128  0.3593  0.5005
16824SOL    HW151913   3.774   5.676  10.029 -0.4049  0.8602  0.3752
16824SOL    HW251914   3.801   5.823  10.003  0.9645  0.5764  0.1263
16825SOL     OW51915   3.118   5.861   8.192 -0.5878  0.3540 -0.2897
16825SOL    HW151916   3.185   5.884   8.257  1.4577 -2.2647 -1.2973
16825SOL    HW251917   3.126   5.929   8.125  3.5859 -1.4768 -2.0208
16826SOL     OW51918   3.266   6.703   9.950  0.3343  0.0518 -0.1691
16826SOL    HW151919   3.207   6.750  10.009 -0.2884 -0.0235 -0.7145
16826SOL    HW251920   3.350   6.747   9.959  0.3365 -0.1644  1.0112
16827SOL     OW51921   3.076   7.679   7.897 -0.1213 -0.1854 -0.7855
16827SOL    HW151922   3.043   7.674   7.807 -1.7683 -1.1119 -0.1662
16827SOL    HW251923   3.017   7.624   7.948 -1.2063  2.7594  1.4536
16828SOL     OW51924   4.001   6.488   7.233  0.5015 -0.3130  0.5137
16828SOL    HW151925   4.082   6.504   7.280  0.1138  1.1645  0.7214
16828SOL    HW251926   4.026   6.433   7.158  1.8261  0.7925  0.1213
16829SOL     OW51927   5.393   6.074   5.691 -0.1010  0.0484 -0.0564
16829SOL    HW151928   5.402   5.981   5.712  0.1257  0.1549  0.3126
16829SOL    HW251929   5.361   6.074   5.601  1.1249 -0.3736 -0.5165
16830SOL     OW51930   4.064   5.787   7.529  0.1816  0.0159  0.3238
16830SOL    HW151931   4.109   5.870   7.511  1.7268 -1.0104 -0.8326
16830SOL    HW251932   3.997   5.781   7.461  0.9249 -0.2539 -0.4082
16831SOL     OW51933   4.858   5.194   7.268  0.2980 -0.9276 -0.0071
16831SOL    HW151934   4.789   5.146   7.313  1.0631 -0.4590  1.7436
16831SOL    HW251935   4.924   5.127   7.248  0.4039 -0.9846  0.5065
16832SOL     OW51936   5.101   4.084   6.979  0.1939  0.3036  0.2244
16832SOL    HW151937   5.052   4.008   7.010 -0.8336  1.5352  1.7667
16832SOL    HW251938   5.034   4.145   6.949  1.0062  0.6588 -0.9646
16833SOL     OW51939   2.660   0.348   8.533  0.4343  0.1430  0.4069
16833SOL    HW151940   2.572   0.348   8.496  0.9802  0.0897 -0.9330
16833SOL    HW251941   2.672   0.438   8.566 -0.2740  0.0261  1.0151
16834SOL     OW51942   3.941   7.391   7.930  0.5027  0.3496  0.1686
16834SOL    HW151943   3.976   7.452   7.995  1.2510 -0.0650  0.1584
16834SOL    HW251944   3.880   7.444   7.878  2.2097  1.4556 -0.7666
16835SOL     OW51945   2.365   5.857   8.608 -0.0204  0.2835 -0.0612
16835SOL    HW151946   2.452   5.843   8.645 -0.2780  0.4067  0.6079
16835SOL    HW251947   2.369   5.817   8.521  1.0447  1.2818 -0.4971
16836SOL     OW51948   3.816   5.714  10.622 -0.1681  0.3274  0.1555
16836SOL    HW151949   3.845   5.648  10.559  1.5361  0.5389  0.6672
16836SOL    HW251950   3.812   5.667  10.705  2.0834  1.0482  0.7255
16837SOL     OW51951   4.244   5.381   9.058 -0.1154 -0.6154  0.2195
16837SOL    HW151952   4.236   5.286   9.066 -2.5544 -0.5043 -0.1147
16837SOL    HW251953   4.221   5.400   8.967 -2.5152  0.4480  0.9501
16838SOL     OW51954   4.474   6.529  10.908 -0.0530  0.2282  0.4455
16838SOL    HW151955   4.502   6.620  10.894 -1.8139  0.8997  1.0026
16838SOL    HW251956   4.447   6.499  10.821  1.7170 -0.2227  0.0208
16839SOL     OW51957   4.118   5.396  10.561  0.4031 -0.5842 -0.0685
16839SOL    HW151958   4.211   5.400  10.586  0.4737 -0.9566 -0.2743
16839SOL    HW251959   4.114   5.441  10.477  0.4418 -0.7940 -0.1836
16840SOL     OW51960   4.149   6.178  11.237  0.0329 -0.1953  0.3230
16840SOL    HW151961   4.096   6.255  11.258  0.3662  0.5600 -1.4245
16840SOL    HW251962   4.237   6.200  11.266  0.0947  0.0337 -0.0267
16841SOL     OW51963   7.376   5.609  10.458  0.0357 -0.0330  0.2680
16841SOL    HW151964   7.462   5.602  10.417  0.8506 -0.3704  1.9487
16841SOL    HW251965   7.342   5.519  10.457  0.0411 -0.0355  0.3147
16842SOL     OW51966   3.638   5.512  11.150  0.0692  0.0852 -0.1578
16842SOL    HW151967   3.692   5.585  11.180  0.4225 -0.9853  2.0375
16842SOL    HW251968   3.695   5.436  11.157 -0.4587 -0.5137 -1.8997
16843SOL     OW51969   5.116   6.508  11.653  0.4876 -0.1229 -0.2044
16843SOL    HW151970   5.123   6.417  11.682  1.5912  0.1764  0.5352
16843SOL    HW251971   5.195   6.522  11.601 -0.2429  0.0888 -1.2808
16844SOL     OW51972   4.973   7.426   9.988 -0.1910  0.2258 -0.6790
16844SOL    HW151973   4.976   7.522   9.986  1.1701  0.2050 -0.3738
16844SOL    HW251974   5.055   7.400  10.029  0.2893 -1.1272 -2.3797
16845SOL     OW51975   2.852   7.666  10.991  0.0211 -0.1215  0.1507
16845SOL    HW151976   2.789   7.662  10.918 -0.1313 -0.2805  0.2908
16845SOL    HW251977   2.799   7.652  11.069  0.2738 -0.5316  0.2500
16846SOL     OW51978   3.997   6.652  10.166 -0.4374 -0.3670  0.2143
16846SOL    HW151979   3.983   6.745  10.148  1.1606 -0.5994 -2.7871
16846SOL    HW251980   4.067   6.651  10.231  2.9116  0.7007 -3.0167
16847SOL     OW51981   6.815   7.158  11.017  0.1396 -0.2238  0.3613
16847SOL    HW151982   6.877   7.228  10.997  0.0871 -0.7753 -2.0387
16847SOL    HW251983   6.842   7.126  11.103  0.5605  2.2754  1.2422
16848SOL     OW51984   4.891   6.674  11.484 -0.4066  0.0821  0.3202
16848SOL    HW151985   4.828   6.721  11.538 -0.5156  0.0235  0.2441
16848SOL    HW251986   4.937   6.617  11.546 -0.8013 -0.2760  0.2920
16849SOL     OW51987   5.803   7.431   8.959 -0.8205 -0.4972 -0.6703
16849SOL    HW151988   5.854   7.362   8.916  0.5683 -0.2012  0.4224
16849SOL    HW251989   5.793   7.498   8.891  0.4124 -0.4952 -0.8815
16850SOL     OW51990   3.949   6.488   8.678 -0.0282 -0.6179  0.4547
16850SOL    HW151991   3.905   6.543   8.743  1.0620 -0.5814  1.1978
16850SOL    HW251992   3.972   6.548   8.608  1.3311 -0.0411  1.3504
16851SOL     OW51993   5.061   0.207  11.276  0.1874 -0.1416 -0.1162
16851SOL    HW151994   5.079   0.113  11.269 -0.4174 -0.2045 -0.9600
16851SOL    HW251995   4.974   0.218  11.239 -0.0182  0.6727  0.5751
16852SOL     OW51996   6.099   6.628   8.401  0.5058  0.0343 -0.7305
16852SOL    HW151997   6.147   6.685   8.460  1.5822  0.5461 -2.0553
16852SOL    HW251998   6.054   6.688   8.341  0.9826 -0.4889 -1.6225
16853SOL     OW51999   4.648   7.040  11.509  0.1254 -0.3903 -0.1891
16853SOL    HW152000   4.673   7.050  11.417 -0.9956 -0.7680 -0.5530
16853SOL    HW252001   4.691   7.113  11.554  1.9938 -1.1050 -0.7153
16854SOL     OW52002   3.850   7.655  10.633 -0.2313 -0.7555 -0.0099
16854SOL    HW152003   3.939   7.620  10.631  0.5763  1.1802 -0.8376
16854SOL    HW252004   3.842   7.697  10.719  0.2249  0.3366 -0.4769
16855SOL     OW52005   5.269   6.194   9.041  0.1226  0.2338 -0.2055
16855SOL    HW152006   5.335   6.128   9.059  0.4200  0.4647 -0.4239
16855SOL    HW252007   5.306   6.275   9.075 -0.1420  0.3275 -0.1364
16856SOL     OW52008   5.731   6.710  10.634 -0.3511 -0.3977 -0.4016
16856SOL    HW152009   5.804   6.773  10.642  1.2606 -2.2397  0.2164
16856SOL    HW252010   5.663   6.745  10.691  0.9572  0.2146  0.8373
16857SOL     OW52011   4.546   4.659  10.385  0.2405  0.1793 -0.4226
16857SOL    HW152012   4.510   4.661  10.297 -0.6118  1.7655 -0.0707
16857SOL    HW252013   4.618   4.596  10.380 -0.4675 -0.5719 -1.9628
16858SOL     OW52014   4.896   7.089   8.665  0.1527 -0.2879 -0.0029
16858SOL    HW152015   4.862   7.000   8.667 -0.1249 -0.1767  0.2843
16858SOL    HW252016   4.986   7.081   8.698 -0.6484 -0.1280  2.4011
16859SOL     OW52017   2.964   7.921  10.904 -0.6709 -0.5591 -0.2732
16859SOL    HW152018   2.919   7.846  10.944 -0.6280 -0.4891 -0.0956
16859SOL    HW252019   2.973   7.896  10.812 -0.7085 -0.7487 -0.2276
16860SOL     OW52020   4.837   6.416   8.404 -0.5262 -0.1186  0.5296
16860SOL    HW152021   4.894   6.383   8.474 -0.2892 -0.9120 -0.0149
16860SOL    HW252022   4.807   6.337   8.359  2.2449  0.3588 -2.5407
16861SOL     OW52023   5.505   5.527   7.935 -0.5692  0.5446 -0.2293
16861SOL    HW152024   5.532   5.599   7.992  0.3301 -0.8561  1.1818
16861SOL    HW252025   5.436   5.483   7.984 -0.1515 -0.3696 -0.4480
16862SOL     OW52026   4.063   4.554   9.600 -0.1999  0.0931  0.5521
16862SOL    HW152027   3.980   4.518   9.633  0.4856 -1.3714  0.7403
16862SOL    HW252028   4.075   4.511   9.515  1.0795 -0.8620  1.1804
16863SOL     OW52029   4.191   7.626   8.948 -0.1771 -0.4361  0.0676
16863SOL    HW152030   4.268   7.576   8.919 -1.2794 -2.5269  0.4881
16863SOL    HW252031   4.196   7.624   9.043 -1.8335 -2.5514  0.1773
16864SOL     OW52032   4.958   5.837   9.932  0.4267 -0.3188 -0.5618
16864SOL    HW152033   5.024   5.897   9.897 -2.3319  1.7981 -2.6281
16864SOL    HW252034   4.911   5.889   9.997 -0.8394 -0.8942 -0.9964
16865SOL     OW52035   4.272   6.400   9.157 -0.1157  0.2833  0.1575
16865SOL    HW152036   4.326   6.376   9.233 -0.8385 -0.6884  0.3902
16865SOL    HW252037   4.211   6.465   9.191  0.8930  1.4054 -0.1129
16866SOL     OW52038   4.308   5.598  10.015  0.1200 -0.4081  0.1725
16866SOL    HW152039   4.226   5.549  10.020 -0.1500  0.1372  1.8327
16866SOL    HW252040   4.375   5.536  10.043 -0.0526 -0.2198  1.0395
16867SOL     OW52041   6.167   7.601   8.869 -0.4404  0.0875 -0.3600
16867SOL    HW152042   6.114   7.551   8.931 -0.5099  0.7767  0.1569
16867SOL    HW252043   6.213   7.665   8.924  1.7632 -1.1624 -0.6312
16868SOL     OW52044   3.962   7.296  10.061 -0.2567  0.2285 -0.0218
16868SOL    HW152045   4.024   7.296  10.134  1.5343  1.4764 -1.4645
16868SOL    HW252046   3.998   7.232   9.999 -0.7679  0.4915 -0.5964
16869SOL     OW52047   4.811   5.505  11.524 -0.6909  0.0126 -0.1133
16869SOL    HW152048   4.830   5.582  11.578  0.7960  1.4866 -2.5849
16869SOL    HW252049   4.897   5.466  11.506 -1.3109 -1.4505 -0.0710
16870SOL     OW52050   5.780   0.670   9.731  0.0320 -0.0346 -0.0777
16870SOL    HW152051   5.733   0.705   9.807  1.7634  1.7336  0.2723
16870SOL    HW252052   5.780   0.741   9.668  1.7831 -0.1184 -0.2323
16871SOL     OW52053   4.809   6.873  10.346  0.3804 -0.0823 -0.1442
16871SOL    HW152054   4.788   6.780  10.343  0.6679 -0.1554  0.0941
16871SOL    HW252055   4.766   6.904  10.426  1.1279 -0.2220  0.3178
16872SOL     OW52056   5.616   6.963   9.039  0.0189  0.2687 -0.2941
16872SOL    HW152057   5.682   6.929   8.980 -0.1230  0.9155 -0.8372
16872SOL    HW252058   5.548   6.895   9.041 -0.4319  0.6473 -1.6477
16873SOL     OW52059   5.265   4.198  10.603 -0.1966  0.1699 -0.4326
16873SOL    HW152060   5.334   4.132  10.606 -0.0105  0.3582 -0.5384
16873SOL    HW252061   5.202   4.164  10.540  0.2707  0.4516 -1.0595
16874SOL     OW52062   5.559   7.581   9.241 -0.0843  0.2786  0.0360
16874SOL    HW152063   5.549   7.639   9.166  0.8145  0.3591 -0.0296
16874SOL    HW252064   5.492   7.609   9.302 -0.5001  0.5392 -0.5313
16875SOL     OW52065   4.157   5.456  11.320  0.0026  0.3568  0.2626
16875SOL    HW152066   4.237   5.499  11.350  0.3228 -0.0397 -0.0107
16875SOL    HW252067   4.172   5.440  11.227  0.2024 -1.0068  0.5076
16876SOL     OW52068   5.299   6.269  11.772 -0.2695 -0.1258  0.1912
16876SOL    HW152069   5.307   6.189  11.720  0.3834  0.5453 -0.7708
16876SOL    HW252070   5.387   6.306  11.774 -0.3989  0.1456  1.3269
16877SOL     OW52071   5.124   7.589   8.838 -0.2137 -0.0329 -0.2079
16877SOL    HW152072   5.188   7.646   8.879  0.0431 -1.7264  1.9239
16877SOL    HW252073   5.092   7.639   8.762  2.9607  1.2077 -0.8769
16878SOL     OW52074   4.131   6.998  10.371 -0.9810  0.1331 -0.3416
16878SOL    HW152075   4.211   6.950  10.394 -0.8284 -0.1701 -1.4703
16878SOL    HW252076   4.078   6.995  10.451  0.3652  0.8487  0.6250
16879SOL     OW52077   4.416   6.000   8.975 -0.2184 -0.3832  0.2354
16879SOL    HW152078   4.507   6.030   8.979 -0.3182  0.3651 -1.8499
16879SOL    HW252079   4.412   5.926   9.035  1.5087  0.2143  1.1362
16880SOL     OW52080   3.462   6.108   9.724 -0.0609 -0.1125  0.4009
16880SOL    HW152081   3.550   6.121   9.690 -0.7345  2.3248 -0.6040
16880SOL    HW252082   3.425   6.039   9.670  1.6109 -2.1529  1.7190
16881SOL     OW52083   3.810   7.433  10.456  0.4345  0.6361  0.1323
16881SOL    HW152084   3.876   7.367  10.434 -2.1656 -1.7365 -1.2046
16881SOL    HW252085   3.815   7.441  10.551  3.0337  1.0897  0.0325
16882SOL     OW52086   3.246   5.039  10.061  0.1439  0.2728  0.6167
16882SOL    HW152087   3.289   5.101  10.119 -0.2164  1.9944 -0.8665
16882SOL    HW252088   3.315   5.009  10.002 -0.0365  0.5750  0.2532
16883SOL     OW52089   7.937   6.480  11.974  0.1104 -0.1506  0.2358
16883SOL    HW152090   7.925   6.457  12.066  3.2484 -2.1270  0.3065
16883SOL    HW252091   7.942   6.396  11.928  1.0953  0.7089 -1.3338
16884SOL     OW52092   4.346   0.610   8.139  0.3533 -0.0878 -0.2105
16884SOL    HW152093   4.253   0.611   8.163  0.1184 -1.5805 -0.9598
16884SOL    HW252094   4.380   0.692   8.175 -1.5117  1.1115 -0.9732
16885SOL     OW52095   4.248   6.888   9.760 -0.6263  0.2818  0.3641
16885SOL    HW152096   4.298   6.835   9.697  0.0670 -0.0938  1.1982
16885SOL    HW252097   4.167   6.839   9.774 -0.7552  0.3334 -0.1772
16886SOL     OW52098   4.101   7.671   9.211  0.0554  0.1869 -0.1686
16886SOL    HW152099   4.091   7.751   9.158  0.2563 -0.2874 -0.9409
16886SOL    HW252100   4.086   7.700   9.301 -0.1730  1.0388 -0.4690
16887SOL     OW52101   4.521   6.205  10.264  0.6136  0.0916 -0.2346
16887SOL    HW152102   4.609   6.229  10.292  1.2280 -1.3331 -0.8419
16887SOL    HW252103   4.523   6.109  10.256 -0.5705  0.1405 -1.6251
16888SOL     OW52104   5.436   6.813   9.601  0.1232  0.0361 -0.1276
16888SOL    HW152105   5.530   6.803   9.591 -0.0921 -0.4119 -2.1157
16888SOL    HW252106   5.414   6.759   9.677  1.4886  0.4112  0.5635
16889SOL     OW52107   4.683   6.957  10.567  0.6298 -0.2358 -0.6844
16889SOL    HW152108   4.667   7.047  10.596 -3.4177 -0.4734 -1.6474
16889SOL    HW252109   4.663   6.903  10.644  0.6316 -0.4263 -0.8174
16890SOL     OW52110   3.697   6.240   9.692 -0.8257  0.0136 -0.1804
16890SOL    HW152111   3.721   6.288   9.771  1.1972 -0.4213 -0.4850
16890SOL    HW252112   3.723   6.298   9.620 -0.7588 -0.4482 -0.5348
16891SOL     OW52113   6.233   7.747  10.709  0.5007 -0.3634  0.1693
16891SOL    HW152114   6.233   7.817  10.643  1.0463 -0.0569  0.4913
16891SOL    HW252115   6.184   7.676  10.668 -0.1968  0.2578 -0.1122
16892SOL     OW52116   5.121   0.747   8.820 -0.1445 -0.1592 -0.2269
16892SOL    HW152117   5.184   0.684   8.783  2.4836  1.4234  1.2382
16892SOL    HW252118   5.112   0.720   8.911  1.3872  1.7688  0.5446
16893SOL     OW52119   4.145   5.783  12.410 -0.3893 -0.4359 -0.1052
16893SOL    HW152120   4.196   5.717  12.458 -1.1206 -0.0747  1.1972
16893SOL    HW252121   4.161   5.864  12.458 -3.1772 -0.5289  1.1719
16894SOL     OW52122   5.247   6.828   7.771 -0.3469  0.5103  0.5602
16894SOL    HW152123   5.262   6.735   7.791  0.2886  0.7765  1.3720
16894SOL    HW252124   5.281   6.839   7.682 -0.4673 -0.0396  0.4425
16895SOL     OW52125   5.509   0.294   8.534  0.2881 -0.3888  0.8446
16895SOL    HW152126   5.602   0.316   8.533  0.0213  0.7762 -0.0517
16895SOL    HW252127   5.479   0.320   8.621  0.9615 -1.5929  1.4710
16896SOL     OW52128   5.342   5.245  10.248  0.0193 -0.1319 -0.1386
16896SOL    HW152129   5.411   5.234  10.314  0.5258 -0.5478 -0.7277
16896SOL    HW252130   5.326   5.157  10.215 -1.1538 -0.1129  0.3309
16897SOL     OW52131   3.661   7.642  10.879 -0.1666 -0.4494 -0.1639
16897SOL    HW152132   3.687   7.597  10.960  0.1195 -0.6397 -0.3633
16897SOL    HW252133   3.568   7.622  10.870 -0.0570 -0.9471 -0.2137
16898SOL     OW52134   3.095   6.361   9.111  0.0754  0.5438  0.2356
16898SOL    HW152135   3.032   6.398   9.049  0.3410 -1.1236 -1.1090
16898SOL    HW252136   3.142   6.294   9.061  1.1805 -0.0097  1.9078
16899SOL     OW52137   6.826   5.336  12.354  0.1110  0.7127  0.2499
16899SOL    HW152138   6.846   5.269  12.420  0.7467  0.7124  0.0666
16899SOL    HW252139   6.789   5.286  12.281  1.4392  0.4253 -0.2544
16900SOL     OW52140   5.262   6.390   9.345 -0.4069 -0.3072  0.3213
16900SOL    HW152141   5.326   6.451   9.309 -0.6776 -1.0404 -1.5208
16900SOL    HW252142   5.299   6.303   9.326 -0.3648 -0.7524  2.2541
16901SOL     OW52143   4.174   5.978  11.496 -0.3814 -0.5552 -0.4422
16901SOL    HW152144   4.182   5.984  11.401  0.0498 -0.0101 -0.3814
16901SOL    HW252145   4.084   6.004  11.515  0.2357  1.9122 -0.5306
16902SOL     OW52146   3.852   7.507  11.347 -0.0978 -0.3332  0.8323
16902SOL    HW152147   3.763   7.536  11.327 -0.4844 -2.2119 -0.4687
16902SOL    HW252148   3.868   7.437  11.285  1.9256 -0.7362  1.7447
16903SOL     OW52149   3.415   7.335  11.105 -0.6153  0.2297  0.1451
16903SOL    HW152150   3.339   7.353  11.050 -0.1200 -2.4567 -1.6283
16903SOL    HW252151   3.378   7.310  11.190 -1.6084  0.5829 -0.1730
16904SOL     OW52152   4.943   6.892   9.460  0.0667 -0.1510 -0.4617
16904SOL    HW152153   4.982   6.806   9.469 -0.6986 -0.4967 -0.3269
16904SOL    HW252154   5.016   6.953   9.467  0.4565 -0.7273  0.8094
16905SOL     OW52155   5.334   5.712   8.536  0.2486 -0.2601  0.3895
16905SOL    HW152156   5.398   5.746   8.474  2.0498 -1.9636  1.2355
16905SOL    HW252157   5.267   5.672   8.481 -0.2470  1.6567 -0.5091
16906SOL     OW52158   4.019   5.569   9.129 -0.1651  0.7891 -0.5755
16906SOL    HW152159   4.096   5.514   9.114  0.6334  1.7240 -0.0084
16906SOL    HW252160   3.962   5.516   9.183  0.5418  0.4666 -0.1394
16907SOL     OW52161   5.835   6.843   8.902 -0.1989 -0.1695  0.1372
16907SOL    HW152162   5.845   6.878   8.813  0.2601 -0.4242  0.0845
16907SOL    HW252163   5.849   6.749   8.892 -1.5904 -0.4092  0.2514
16908SOL     OW52164   4.472   5.198   8.762  0.1093 -0.6688  0.1960
16908SOL    HW152165   4.532   5.248   8.817 -1.1206 -0.2395  1.2092
16908SOL    HW252166   4.484   5.107   8.789  0.0809 -0.5460  0.6293
16909SOL     OW52167   3.167   5.619   8.053 -0.4086  0.3503 -0.0866
16909SOL    HW152168   3.212   5.555   8.108 -1.7468  0.2345  0.9115
16909SOL    HW252169   3.153   5.694   8.110  0.2256  1.1481 -0.9535
16910SOL     OW52170   4.579   6.294   9.350 -0.8885  0.3578 -0.1290
16910SOL    HW152171   4.545   6.382   9.332 -3.2230 -0.3847  0.2389
16910SOL    HW252172   4.502   6.244   9.378  0.2350 -2.0020 -0.9853
16911SOL     OW52173   5.055   7.931  11.286 -0.1597 -0.1232  0.3918
16911SOL    HW152174   4.960   7.946  11.294 -0.0052  0.8096  0.6185
16911SOL    HW252175   5.064   7.876  11.209 -0.9076 -0.4413  0.5179
16912SOL     OW52176   5.304   4.719  10.532  0.4471 -0.2410  0.4269
16912SOL    HW152177   5.279   4.644  10.586  0.9861 -0.2625  0.6500
16912SOL    HW252178   5.243   4.788  10.558  0.0605 -0.5432  0.3465
16913SOL     OW52179   2.183   6.513   8.871 -0.0261  0.0697  0.0718
16913SOL    HW152180   2.116   6.448   8.893 -2.0863  1.1137 -2.6188
16913SOL    HW252181   2.218   6.484   8.787  2.4532 -0.0154  1.0464
16914SOL     OW52182   5.649   5.424   8.795 -0.1478  0.3386 -0.0012
16914SOL    HW152183   5.688   5.393   8.876  0.1185 -0.5118 -0.4362
16914SOL    HW252184   5.701   5.501   8.771 -0.6211  0.9623  0.9432
16915SOL     OW52185   4.004   5.141  10.565  0.6162  0.1139  0.0354
16915SOL    HW152186   4.012   5.227  10.607  1.2699  0.0498  0.0455
16915SOL    HW252187   4.073   5.139  10.499 -1.5127  0.9300 -2.3967
16916SOL     OW52188   4.242   4.822   9.652 -0.5461 -0.1213  0.2078
16916SOL    HW152189   4.186   4.744   9.644 -0.8295  0.2075 -1.3846
16916SOL    HW252190   4.212   4.880   9.582  1.3319  0.3511 -0.2620
16917SOL     OW52191   5.302   0.304   9.191 -0.0461 -0.2198  0.1693
16917SOL    HW152192   5.273   0.249   9.118  2.4414 -2.4506  0.7247
16917SOL    HW252193   5.317   0.390   9.151  0.8300 -1.2517 -1.8801
16918SOL     OW52194   3.442   4.823   9.603  0.0067 -0.6370 -0.4101
16918SOL    HW152195   3.389   4.866   9.671  1.2273 -1.0011  0.8059
16918SOL    HW252196   3.398   4.739   9.588 -0.6378 -0.2827 -0.5618
16919SOL     OW52197   3.159   5.347   9.822 -0.3117  0.2128 -0.1471
16919SOL    HW152198   3.237   5.299   9.794  0.0245  0.7281 -0.1069
16919SOL    HW252199   3.087   5.286   9.807  0.2008 -0.6748  0.8035
16920SOL     OW52200   5.233   0.086   9.031 -0.2923 -0.5833 -0.3321
16920SOL    HW152201   5.217   0.022   9.101  1.4825 -1.9185 -1.0829
16920SOL    HW252202   5.166   0.066   8.965  0.3357 -1.7892 -0.6238
16921SOL     OW52203   4.547   6.865   8.823  0.1107  0.0233  0.1623
16921SOL    HW152204   4.618   6.887   8.884  0.9468  0.5567 -0.9613
16921SOL    HW252205   4.518   6.778   8.850  0.3276  0.3184  1.4262
16922SOL     OW52206   5.015   6.889   9.949 -0.7804  0.5627  0.3854
16922SOL    HW152207   4.991   6.824   9.883 -1.0970  1.5262 -0.4897
16922SOL    HW252208   5.089   6.851   9.995 -0.3590 -0.0210 -0.7324
16923SOL     OW52209   6.364   6.117   8.519 -0.1789 -0.4670 -0.4599
16923SOL    HW152210   6.393   6.189   8.462 -1.7500  0.0322 -0.6899
16923SOL    HW252211   6.443   6.088   8.563  0.5814  1.1595 -0.6529
16924SOL     OW52212   7.799   6.376   9.757  0.4460 -0.3980 -0.3382
16924SOL    HW152213   7.769   6.379   9.848  1.2198 -2.8269  0.0785
16924SOL    HW252214   7.724   6.341   9.708 -0.3305  1.8599 -0.8857
16925SOL     OW52215   4.488   6.028   8.195  0.6892 -0.2905 -0.0626
16925SOL    HW152216   4.396   6.013   8.173  0.5476  0.6052 -0.1050
16925SOL    HW252217   4.508   5.962   8.262  0.1363 -0.7562 -0.3538
16926SOL     OW52218   5.999   1.082  10.385  0.3426 -0.3358 -0.2106
16926SOL    HW152219   5.980   0.995  10.421 -0.5194 -0.9484 -2.0148
16926SOL    HW252220   5.915   1.111  10.348  0.7099  1.1284  0.0650
16927SOL     OW52221   4.391   6.556  11.840  0.0561 -0.0738  0.1601
16927SOL    HW152222   4.405   6.488  11.774 -0.0436  0.3112 -0.2647
16927SOL    HW252223   4.438   6.632  11.806  0.6314 -0.0887  0.8997
16928SOL     OW52224   4.388   7.136  11.440 -0.0144  0.6942 -0.1371
16928SOL    HW152225   4.478   7.113  11.466 -0.2772 -1.0299 -0.6261
16928SOL    HW252226   4.363   7.205  11.501  1.0657  0.0483  1.0989
16929SOL     OW52227   4.363   0.016   9.779 -0.1942 -0.1772 -0.0440
16929SOL    HW152228   4.321   0.101   9.768 -0.7470 -0.5484 -0.9073
16929SOL    HW252229   4.300  -0.047   9.743  0.7664 -0.8179 -0.6610
16930SOL     OW52230   6.083   6.413   9.292 -0.1003 -0.5029  0.2465
16930SOL    HW152231   6.018   6.405   9.221  1.9670 -2.4686 -1.5598
16930SOL    HW252232   6.033   6.395   9.371 -2.4562  1.4914 -0.6241
16931SOL     OW52233   4.263   6.897  11.147 -0.2360  1.0801  0.7958
16931SOL    HW152234   4.267   6.891  11.052  0.3250 -1.3441  0.9184
16931SOL    HW252235   4.355   6.898  11.174 -0.3899  1.8606  1.3479
16932SOL     OW52236   4.545   5.823  11.765  0.1871  0.0468  0.5603
16932SOL    HW152237   4.515   5.913  11.776 -2.3033 -0.4844 -1.1358
16932SOL    HW252238   4.501   5.774  11.835 -0.3715 -0.2154  0.0346
16933SOL     OW52239   4.983   6.313   8.617 -0.0779  0.5407 -0.0823
16933SOL    HW152240   4.998   6.407   8.631 -1.8137  0.8651 -0.1913
16933SOL    HW252241   4.985   6.275   8.705 -1.2964  1.0054  0.1585
16934SOL     OW52242   5.746   6.392  10.528  0.3199 -0.2533 -0.1432
16934SOL    HW152243   5.817   6.421  10.586  0.4590 -0.8242 -0.0298
16934SOL    HW252244   5.674   6.371  10.586 -0.1881  0.9592 -0.2940
16935SOL     OW52245   4.197   6.784   8.910 -0.5867 -0.0579 -0.3085
16935SOL    HW152246   4.104   6.767   8.927 -0.3352 -1.7440 -0.4742
16935SOL    HW252247   4.233   6.806   8.996 -0.8387 -0.9851  0.0492
16936SOL     OW52248   5.118   6.660   9.721 -0.0822 -0.2129  0.7029
16936SOL    HW152249   5.195   6.658   9.778  0.3623  0.5408  0.1628
16936SOL    HW252250   5.050   6.615   9.770  0.4909 -0.2173  1.5180
16937SOL     OW52251   3.134   5.202  10.523  0.0759 -0.2649  1.2085
16937SOL    HW152252   3.100   5.240  10.441 -0.6443 -1.1008  1.1074
16937SOL    HW252253   3.119   5.270  10.589 -0.0636  0.1071  0.7950
16938SOL     OW52254   5.081   6.623   8.917 -0.1272 -0.2155 -0.0405
16938SOL    HW152255   5.055   6.544   8.965  0.8887 -0.1981  0.5626
16938SOL    HW252256   5.090   6.691   8.985  1.3690 -0.2044 -0.2114
16939SOL     OW52257   5.969   6.566   9.737 -0.0973 -0.3719 -0.0354
16939SOL    HW152258   5.886   6.607   9.761  0.3509  0.5703 -0.0365
16939SOL    HW252259   6.011   6.544   9.820 -0.8861 -2.0185 -0.0377
16940SOL     OW52260   5.491   5.990   9.093  0.2233  0.0742  0.7342
16940SOL    HW152261   5.428   5.924   9.121  1.3868 -2.1253 -1.4576
16940SOL    HW252262   5.534   6.018   9.174 -1.1188 -0.9773  1.8623
16941SOL     OW52263   2.798   5.104   9.521  0.1750  0.6376 -0.0293
16941SOL    HW152264   2.812   5.018   9.481 -1.9741 -0.3328  1.1598
16941SOL    HW252265   2.779   5.086   9.613  2.0462  2.5995  0.8457
16942SOL     OW52266   4.479   7.315   9.530  0.2508  0.4172  0.1758
16942SOL    HW152267   4.406   7.375   9.514  0.8896  1.4158  0.8844
16942SOL    HW252268   4.557   7.369   9.519  0.8200 -0.0148  1.8224
16943SOL     OW52269   4.799   5.789  11.670  0.7518  0.5427  0.2706
16943SOL    HW152270   4.709   5.775  11.697  0.6569 -0.8761 -0.7391
16943SOL    HW252271   4.851   5.764  11.747  0.3931 -1.5241 -0.1081
16944SOL     OW52272   4.722   6.683  11.248  0.2284  0.8787  0.2208
16944SOL    HW152273   4.782   6.645  11.184  1.5717  3.6111 -0.3100
16944SOL    HW252274   4.776   6.694  11.327 -0.5896  0.2237  0.8889
16945SOL     OW52275   4.383   0.016  11.703 -0.7478  0.1665  0.3661
16945SOL    HW152276   4.330   0.092  11.681  0.1844  0.6782 -0.1581
16945SOL    HW252277   4.343  -0.057  11.655  0.2647  0.9516 -1.7949
16946SOL     OW52278   3.206   5.011  10.701  0.2250 -0.3977  0.0609
16946SOL    HW152279   3.156   5.048  10.628 -2.1261 -0.9598  1.2990
16946SOL    HW252280   3.291   4.989  10.662  0.6487  3.1784 -1.4982
16947SOL     OW52281   3.408   5.949  10.912  0.4806  0.1014 -0.7321
16947SOL    HW152282   3.371   5.971  10.998 -1.2114 -1.8641 -0.8779
16947SOL    HW252283   3.481   5.890  10.932 -0.5321 -1.1543 -0.6366
16948SOL     OW52284   3.558   6.286   9.020  0.1288  0.4975  0.9548
16948SOL    HW152285   3.502   6.231   9.074 -0.6422 -0.5575 -0.8189
16948SOL    HW252286   3.618   6.224   8.977 -1.0648  0.8977 -1.4679
16949SOL     OW52287   3.976   5.966  10.640  0.1710 -0.1219  0.4016
16949SOL    HW152288   3.924   5.886  10.638  0.6499 -0.4279 -0.7663
16949SOL    HW252289   4.025   5.965  10.557  0.4911  1.1743  0.5497
16950SOL     OW52290   2.182   6.172  10.650  0.2362 -0.0115  0.0434
16950SOL    HW152291   2.223   6.201  10.569  0.6777  1.0689  0.6408
16950SOL    HW252292   2.247   6.191  10.718  0.6554 -2.5968  0.4811
16951SOL     OW52293   4.005   6.918  10.139 -0.2297  0.2551 -0.4808
16951SOL    HW152294   4.083   6.895  10.089 -0.4209 -0.7580 -0.3363
16951SOL    HW252295   4.038   6.960  10.219  0.1840 -0.4752 -0.2633
16952SOL     OW52296   4.678   7.042  12.299 -0.3033  0.9046  0.0101
16952SOL    HW152297   4.722   7.027  12.216 -2.1863 -0.1285 -0.8720
16952SOL    HW252298   4.605   7.101  12.277 -2.1389 -1.0916  0.4194
16953SOL     OW52299   4.731   5.150  10.059 -0.4547 -0.5432  0.4160
16953SOL    HW152300   4.751   5.149  10.153 -0.2109 -1.0161  0.3627
16953SOL    HW252301   4.803   5.200  10.020  0.3311 -1.7129  0.2988
16954SOL     OW52302   5.707   6.690   8.554 -0.1420  0.4529  0.2281
16954SOL    HW152303   5.633   6.728   8.505 -0.9068 -0.1630  0.8679
16954SOL    HW252304   5.753   6.765   8.590  0.2557  0.9036 -1.1711
16955SOL     OW52305   3.200   7.725   0.118 -0.3813 -0.5934 -0.4157
16955SOL    HW152306   3.200   7.773   0.200  3.1049 -0.8970 -0.0773
16955SOL    HW252307   3.158   7.642   0.139  0.3416 -0.6157  1.0713
16956SOL     OW52308   4.020   6.320  11.010 -0.0395 -0.2628 -0.6801
16956SOL    HW152309   4.068   6.258  11.066 -0.8039 -0.2013  0.0569
16956SOL    HW252310   4.044   6.294  10.921 -0.9870 -2.1899 -0.4256
16957SOL     OW52311   5.213   0.369  10.225  0.0165 -0.2342  0.1756
16957SOL    HW152312   5.179   0.428  10.292  0.3674  0.1571  0.0148
16957SOL    HW252313   5.307   0.387  10.222  0.1390 -0.8682  0.1861
16958SOL     OW52314   4.758   6.085  11.628 -0.4305 -0.2943  0.1841
16958SOL    HW152315   4.764   5.991  11.610 -0.7284 -0.4033  0.6465
16958SOL    HW252316   4.674   6.111  11.591 -0.5113 -0.2835  0.3738
16959SOL     OW52317   4.397   5.284   9.678 -0.5603  0.1637 -0.1675
16959SOL    HW152318   4.397   5.269   9.584 -0.6452 -1.8493  0.1075
16959SOL    HW252319   4.474   5.338   9.694  1.1794 -1.8710 -1.1157
16960SOL     OW52320   5.424   6.266   8.235 -0.0917  0.2922 -0.9293
16960SOL    HW152321   5.456   6.335   8.293 -0.8745  0.1365 -0.2833
16960SOL    HW252322   5.345   6.233   8.279 -0.2639 -0.3607 -1.7041
16961SOL     OW52323   5.347   0.079   9.654  0.0671  0.5099 -0.6017
16961SOL    HW152324   5.350   0.152   9.593 -1.6382  0.7872 -0.3850
16961SOL    HW252325   5.324   0.003   9.600  1.4917  0.1685 -0.7679
16962SOL     OW52326   5.132   0.604   9.471  0.3662  0.2567  0.4242
16962SOL    HW152327   5.088   0.540   9.414 -0.3279  0.7014  0.4476
16962SOL    HW252328   5.149   0.556   9.552  0.5563 -0.1217  0.1650
16963SOL     OW52329   3.759   4.738   9.757 -0.4740  0.9073  0.2309
16963SOL    HW152330   3.777   4.671   9.822 -0.4823  0.0915 -0.5904
16963SOL    HW252331   3.789   4.820   9.798 -0.9182  0.4877  1.4301
16964SOL     OW52332   4.900   6.214  12.075 -0.1786 -0.0547  0.1883
16964SOL    HW152333   4.833   6.230  12.009 -0.9844  1.6998  1.3525
16964SOL    HW252334   4.983   6.230  12.030 -0.7417  1.9563 -0.2479
16965SOL     OW52335   4.370   4.897  10.890 -0.3394 -0.3572 -0.4057
16965SOL    HW152336   4.276   4.911  10.895 -0.3027 -0.2541 -0.0170
16965SOL    HW252337   4.379   4.814  10.842 -0.6337 -0.4678 -0.2744
16966SOL     OW52338   3.459   7.973  10.173 -0.3178  0.2807 -0.2304
16966SOL    HW152339   3.551   7.994  10.155 -0.5052  0.6447 -0.7836
16966SOL    HW252340   3.427   8.050  10.221  0.0490 -0.4751  1.2792
16967SOL     OW52341   2.363   6.248  10.841  0.2025 -0.0583  0.1302
16967SOL    HW152342   2.388   6.320  10.899  2.4649 -0.4661 -0.2450
16967SOL    HW252343   2.440   6.191  10.839 -0.6737 -1.2727 -1.4369
16968SOL     OW52344   4.864   0.493  10.088  0.9068  0.5621  0.5467
16968SOL    HW152345   4.951   0.485  10.049  0.5956 -1.0510  0.1045
16968SOL    HW252346   4.874   0.559  10.157  2.4995  0.2963  0.5999
16969SOL     OW52347   5.133   1.007  10.573 -0.3245 -0.3330  0.7015
16969SOL    HW152348   5.074   0.979  10.503 -0.6999 -0.0913  0.9163
16969SOL    HW252349   5.178   0.927  10.601  0.8650 -0.2130 -0.7545
16970SOL     OW52350   4.055   7.018   9.063 -0.3973 -0.1587 -0.0171
16970SOL    HW152351   4.033   7.095   9.012  0.4076 -0.1378 -0.3516
16970SOL    HW252352   4.089   7.052   9.146  0.5256 -0.1287 -0.3986
16971SOL     OW52353   5.119   6.813  10.614 -0.1841  0.3443 -0.5686
16971SOL    HW152354   5.198   6.813  10.669 -0.1790 -1.2880 -0.5152
16971SOL    HW252355   5.046   6.814  10.676 -0.2007 -3.1351 -0.3352
16972SOL     OW52356   4.950   7.125  10.641 -0.6166  0.2043 -0.2882
16972SOL    HW152357   4.918   7.083  10.721  2.3621 -1.4658  0.1761
16972SOL    HW252358   5.040   7.152  10.663 -0.5341  1.8590 -2.3679
16973SOL     OW52359   3.984   7.430   9.069 -0.7307 -0.1098  0.5498
16973SOL    HW152360   4.029   7.364   9.122 -0.3232 -0.0093  0.3411
16973SOL    HW252361   3.999   7.512   9.115 -1.7068 -0.2330  1.1018
16974SOL     OW52362   4.914   6.483  10.809  0.1033 -0.0005  0.1159
16974SOL    HW152363   4.899   6.391  10.834  1.5240  0.9077  5.8243
16974SOL    HW252364   5.007   6.486  10.786  0.3497  0.1396  1.0937
16975SOL     OW52365   4.323   6.871  11.900  0.5766  0.2858  0.2100
16975SOL    HW152366   4.316   6.902  11.810  0.7454 -0.9675 -0.2649
16975SOL    HW252367   4.415   6.885  11.923  1.4625 -2.5770 -1.1118
16976SOL     OW52368   4.773   6.804   8.679 -0.0442  0.2571 -0.7575
16976SOL    HW152369   4.746   6.838   8.764  0.4979  0.4862 -0.6723
16976SOL    HW252370   4.706   6.739   8.657  0.0225 -0.0966  0.0307
16977SOL     OW52371   3.418   7.095   9.690  0.2256  0.6797 -0.1890
16977SOL    HW152372   3.432   7.131   9.777  2.0138  0.2159 -0.2552
16977SOL    HW252373   3.493   7.038   9.675 -0.6681 -0.1977 -1.5580
16978SOL     OW52374   4.359   6.223   7.399  0.3191  0.1704  0.2367
16978SOL    HW152375   4.361   6.313   7.367  0.6267  0.5156  1.2057
16978SOL    HW252376   4.438   6.183   7.364 -0.5233 -0.1660 -1.3929
16979SOL     OW52377   3.541   5.843  11.988 -0.1497  0.0637  1.0103
16979SOL    HW152378   3.563   5.762  11.941  0.5490  1.1496 -0.6079
16979SOL    HW252379   3.466   5.878  11.940 -1.1806 -0.1827  2.4026
16980SOL     OW52380   5.084   7.077   9.064  0.0546 -0.0407  0.7103
16980SOL    HW152381   5.180   7.078   9.059  0.0965  0.6936  1.5363
16980SOL    HW252382   5.059   7.169   9.074 -0.8244 -0.0942 -0.7523
16981SOL     OW52383   4.420   6.082   9.735 -0.1365  0.1384  0.2200
16981SOL    HW152384   4.409   6.039   9.820 -0.0584 -0.0838  0.1185
16981SOL    HW252385   4.352   6.044   9.680  1.0125 -1.1310 -0.3734
16982SOL     OW52386   5.874   7.847  10.338 -0.4402  0.1817 -0.5598
16982SOL    HW152387   5.904   7.933  10.364 -1.5173  0.2542  0.5099
16982SOL    HW252388   5.854   7.856  10.245  0.8317  0.6653 -0.8118
16983SOL     OW52389   4.150   5.081  11.207  0.1276 -0.0012  0.0942
16983SOL    HW152390   4.186   5.005  11.251  2.3182  0.7697 -0.2563
16983SOL    HW252391   4.131   5.144  11.277  1.1263  0.2371  0.1580
16984SOL     OW52392   3.424   7.414  11.845 -0.3912  0.0554 -0.7488
16984SOL    HW152393   3.416   7.342  11.907 -2.0905 -1.8645 -2.9796
16984SOL    HW252394   3.373   7.485  11.883  0.9682 -0.0095  1.3113
16985SOL     OW52395   6.545   7.047   9.232  0.0385  0.1305  0.3825
16985SOL    HW152396   6.568   7.093   9.313 -1.7948 -0.3171  1.2006
16985SOL    HW252397   6.509   7.116   9.176  1.2367  0.4265 -0.0572
16986SOL     OW52398   4.397   6.820   9.127  0.4475  0.0946  0.5669
16986SOL    HW152399   4.448   6.771   9.062 -0.3856  0.4426 -0.3709
16986SOL    HW252400   4.456   6.890   9.154  1.4510 -1.0617  1.5118
16987SOL     OW52401   3.345   6.026  11.176 -0.6836  0.2688 -0.1684
16987SOL    HW152402   3.344   6.120  11.194 -1.2472  0.3227 -0.4779
16987SOL    HW252403   3.346   5.985  11.263  2.1666  0.5497  0.0516
16988SOL     OW52404   5.129   6.244  10.190  0.2308  0.4309 -0.0559
16988SOL    HW152405   5.217   6.251  10.227 -0.0021 -1.3683  0.9174
16988SOL    HW252406   5.142   6.200  10.106  0.3906  1.4857 -0.6033
16989SOL     OW52407   3.005   5.810   9.713 -0.2099  0.1480 -0.2093
16989SOL    HW152408   3.015   5.758   9.632 -0.7074  0.5209 -0.5209
16989SOL    HW252409   2.913   5.838   9.711  0.5237  2.7049 -1.0640
16990SOL     OW52410   5.714   6.339   8.126 -0.1631 -0.0696 -0.7619
16990SOL    HW152411   5.736   6.304   8.039 -0.1947 -1.2573 -0.3053
16990SOL    HW252412   5.786   6.310   8.182 -0.0106  0.9162 -0.4334
16991SOL     OW52413   7.214   0.697  11.261 -0.5878 -0.1607 -0.5769
16991SOL    HW152414   7.121   0.717  11.262 -0.5302  0.0998 -0.3634
16991SOL    HW252415   7.220   0.609  11.300 -0.7966 -0.4209 -1.1229
16992SOL     OW52416   6.917   6.114  11.030 -0.0427  0.7632  0.0375
16992SOL    HW152417   6.884   6.063  10.956 -0.3792  1.2417 -0.1458
16992SOL    HW252418   6.987   6.060  11.067  0.8175  0.9717 -1.2379
16993SOL     OW52419   6.165   6.924   9.554 -0.6707 -0.0510  0.4603
16993SOL    HW152420   6.104   6.852   9.538 -1.1577  0.2767  0.7791
16993SOL    HW252421   6.139   6.991   9.490  0.9114 -0.8126 -1.0268
16994SOL     OW52422   6.488   1.781   8.761 -0.1034  0.1376 -0.4172
16994SOL    HW152423   6.534   1.862   8.740 -0.2108 -0.5165 -3.7377
16994SOL    HW252424   6.398   1.808   8.778 -0.4433  0.7273 -2.7405
16995SOL     OW52425   4.627   0.261   9.856  0.5468 -0.0223 -0.5073
16995SOL    HW152426   4.716   0.281   9.827  1.0558 -0.7852  0.4449
16995SOL    HW252427   4.622   0.165   9.852 -0.3487  0.0329 -0.8588
16996SOL     OW52428   5.163   7.925   9.217  0.7263  0.3110  0.3555
16996SOL    HW152429   5.090   7.967   9.263  1.4561  0.5128  1.3672
16996SOL    HW252430   5.220   7.893   9.287  0.3221 -2.2068 -0.3401
16997SOL     OW52431   5.914   7.088   9.866 -0.8023  0.0067  0.0065
16997SOL    HW152432   5.858   7.099   9.789 -1.2650  0.1574  0.3514
16997SOL    HW252433   5.976   7.019   9.842  0.3308  1.3874 -1.2025
16998SOL     OW52434   4.600   6.910  11.134  0.3093  0.1210  0.6039
16998SOL    HW152435   4.633   6.829  11.173  0.8630  0.2332  0.3741
16998SOL    HW252436   4.566   6.883  11.049 -0.7675 -0.0994  1.0928
16999SOL     OW52437   3.777   6.455  10.557 -0.0654 -0.2203  0.4508
16999SOL    HW152438   3.803   6.536  10.513  1.1222 -0.5936  0.4080
16999SOL    HW252439   3.859   6.422  10.595 -0.3870 -1.7240 -0.0929
17000SOL     OW52440   6.006   6.459  11.792 -0.1463  0.2976 -1.2780
17000SOL    HW152441   6.006   6.518  11.717 -0.8312 -0.3866 -1.8400
17000SOL    HW252442   6.040   6.376  11.758  1.9355  0.6627 -0.2172
17001SOL     OW52443   5.388   6.272   9.797  0.0726  0.4753 -0.1489
17001SOL    HW152444   5.309   6.319   9.824 -0.8198 -1.2586  0.3927
17001SOL    HW252445   5.406   6.305   9.709 -1.6344  0.4713 -0.5457
17002SOL     OW52446   5.151   5.641   9.060  0.8914 -0.2309 -0.0285
17002SOL    HW152447   5.131   5.630   8.967 -1.2872 -0.0203  0.3736
17002SOL    HW252448   5.158   5.552   9.094  0.7731 -0.3087 -0.2092
17003SOL     OW52449   5.324   4.441  11.362 -0.2824 -0.0592 -0.5805
17003SOL    HW152450   5.292   4.496  11.291  0.6492  1.0951 -0.1364
17003SOL    HW252451   5.377   4.500  11.416  1.0831 -1.4761 -0.3041
17004SOL     OW52452   4.137   6.100   9.595 -0.3636 -0.0769  0.3836
17004SOL    HW152453   4.102   6.077   9.508 -0.1485 -3.1114  0.9778
17004SOL    HW252454   4.095   6.183   9.616 -0.4408  0.7674 -2.5827
17005SOL     OW52455   3.918   5.955  10.341 -0.2438  0.3363 -0.3381
17005SOL    HW152456   3.881   6.044  10.342  0.3399  0.6346 -1.9585
17005SOL    HW252457   4.004   5.965  10.384  0.0646  0.6859 -1.0230
17006SOL     OW52458   3.723   5.061  11.254 -0.1541  0.0338 -0.3027
17006SOL    HW152459   3.676   5.041  11.173 -1.7138 -0.3432  0.6684
17006SOL    HW252460   3.712   4.983  11.309  2.8686 -0.7039 -0.5428
17007SOL     OW52461   2.370   5.529   7.853  0.1535  0.3168  0.1447
17007SOL    HW152462   2.412   5.612   7.878  0.2566  0.2036  0.3439
17007SOL    HW252463   2.281   5.537   7.886  0.5947 -0.2918  1.5644
17008SOL     OW52464   4.089   6.337  10.485 -0.1106  0.0261  0.0009
17008SOL    HW152465   4.171   6.289  10.477 -0.4016 -0.8612  1.7243
17008SOL    HW252466   4.109   6.426  10.459  1.3495 -0.2089  0.2878
17009SOL     OW52467   3.763   6.430   9.462 -0.3745 -0.3508 -0.4782
17009SOL    HW152468   3.689   6.489   9.474 -1.9067 -2.1713 -0.6317
17009SOL    HW252469   3.726   6.352   9.421  1.3985 -1.7845  0.4906
17010SOL     OW52470   4.156   7.593   9.908 -0.5905  0.1313  0.2441
17010SOL    HW152471   4.077   7.553   9.874  0.2085 -1.4920  0.2179
17010SOL    HW252472   4.216   7.520   9.923  0.6157  1.2336  1.0336
17011SOL     OW52473   5.141   0.313   9.746 -0.2648  0.3725  0.0882
17011SOL    HW152474   5.121   0.244   9.809 -0.3984  0.1298 -0.2195
17011SOL    HW252475   5.205   0.274   9.687 -0.3363  0.5130 -0.0837
17012SOL     OW52476   3.517   7.043  12.004  0.1461 -0.0307 -0.3294
17012SOL    HW152477   3.465   7.119  12.028 -0.5247 -1.0069  1.4608
17012SOL    HW252478   3.454   6.981  11.967  0.5584 -0.0417 -1.0397
17013SOL     OW52479   3.826   7.329   1.447 -0.3954  0.5715 -0.2012
17013SOL    HW152480   3.908   7.366   1.482 -0.8779 -0.7051  2.4537
17013SOL    HW252481   3.758   7.390   1.476 -0.6563  0.2538 -0.1426
17014SOL     OW52482   3.305   6.393  10.832 -0.1655 -0.1083  0.0493
17014SOL    HW152483   3.396   6.389  10.862  0.0046 -2.8021 -0.6042
17014SOL    HW252484   3.262   6.320  10.875 -1.5575 -0.0236 -1.1201
17015SOL     OW52485   2.403   0.413  11.891 -0.5755 -0.5240 -0.0063
17015SOL    HW152486   2.451   0.333  11.916  0.0193 -0.1788 -0.0122
17015SOL    HW252487   2.472   0.479  11.879 -1.1762  0.7227  2.6121
17016SOL     OW52488   5.081   7.247  11.149 -0.1778 -0.2582 -0.0203
17016SOL    HW152489   5.171   7.220  11.132  0.4418  1.8037 -0.3781
17016SOL    HW252490   5.057   7.201  11.229  1.9184  0.5535  1.1742
17017SOL     OW52491   4.476   6.244  11.031  0.0324  0.3941  0.2220
17017SOL    HW152492   4.462   6.228  11.124 -0.7997 -0.6562 -0.0626
17017SOL    HW252493   4.502   6.336  11.026  1.8349  0.0215  1.6609
17018SOL     OW52494   3.947   6.450  11.266 -0.5313  0.1599  0.5226
17018SOL    HW152495   3.955   6.436  11.171 -0.9715  1.0467  0.3506
17018SOL    HW252496   3.991   6.533  11.282 -2.9088  1.4545  0.6536
17019SOL     OW52497   5.718   4.036  11.813 -0.3400 -0.2302 -0.5092
17019SOL    HW152498   5.747   4.030  11.904 -0.8929 -0.2441 -0.3328
17019SOL    HW252499   5.786   4.088  11.770  0.7342 -1.5188 -0.4409
17020SOL     OW52500   5.630   7.502  11.914  0.7898  0.0289  0.0564
17020SOL    HW152501   5.554   7.492  11.856 -0.3453 -0.1429  1.5309
17020SOL    HW252502   5.642   7.597  11.922  0.2528  0.0688  0.4202
17021SOL     OW52503   4.266   6.872  10.875 -0.5656  0.3626  0.4870
17021SOL    HW152504   4.362   6.873  10.871 -0.5630  0.7446  0.5480
17021SOL    HW252505   4.240   6.811  10.806 -0.3777  2.7438 -1.8445
17022SOL     OW52506   3.029   7.964  10.128  0.0754 -0.2499 -0.1172
17022SOL    HW152507   2.959   7.941  10.068  0.7318  0.1755 -1.0716
17022SOL    HW252508   3.108   7.929  10.087  0.3578 -1.3923  1.3134
17023SOL     OW52509   4.030   6.747   9.777 -0.2333  0.1158 -0.8883
17023SOL    HW152510   3.971   6.704   9.840  1.1996 -0.1091  0.3525
17023SOL    HW252511   4.017   6.698   9.696 -0.9683 -0.6246 -0.3475
17024SOL     OW52512   6.757   5.854   8.463 -0.1243 -0.0029 -0.0561
17024SOL    HW152513   6.818   5.922   8.433  0.9582 -1.1712 -0.5462
17024SOL    HW252514   6.809   5.775   8.468 -0.5966 -0.2541  3.4386
17025SOL     OW52515   5.278   7.476   9.987 -0.3346 -0.0507  0.0406
17025SOL    HW152516   5.305   7.401   9.936  2.9024  0.4799  0.7719
17025SOL    HW252517   5.303   7.454  10.077 -1.3348  1.0439  0.6175
17026SOL     OW52518   3.353   7.039  10.940  0.2417  0.0297  0.7687
17026SOL    HW152519   3.383   7.003  11.024 -0.3173  0.0636  0.9915
17026SOL    HW252520   3.271   7.085  10.962 -0.1353 -0.3241  0.1311
17027SOL     OW52521   5.930   6.425   9.518 -0.5552 -0.4232  0.5603
17027SOL    HW152522   5.955   6.473   9.597 -1.2300 -0.0521  0.5538
17027SOL    HW252523   5.912   6.336   9.549 -1.4727 -0.1079  0.9343
17028SOL     OW52524   2.791   5.688  11.399  0.3761 -0.2696  0.2280
17028SOL    HW152525   2.707   5.664  11.358  1.4532 -2.3122 -0.9843
17028SOL    HW252526   2.776   5.674  11.493 -0.6565 -0.5221  0.0438
17029SOL     OW52527   4.159   5.392   9.874  0.0264  0.0930 -0.1011
17029SOL    HW152528   4.192   5.461   9.816  1.2229  2.0018  2.6480
17029SOL    HW252529   4.230   5.328   9.877  1.8809  2.0481  2.3483
17030SOL     OW52530   2.981   4.687   9.465 -0.2795 -0.2681 -0.0626
17030SOL    HW152531   3.038   4.763   9.457 -0.6513  0.0665  0.4037
17030SOL    HW252532   3.035   4.613   9.440 -0.0354  0.1976 -0.9652
17031SOL     OW52533   4.782   0.079  10.934 -0.9604  0.0277  0.1011
17031SOL    HW152534   4.800   0.118  11.020  1.2334 -1.5793  0.4500
17031SOL    HW252535   4.700   0.031  10.947 -1.4159  0.9566  0.8535
17032SOL     OW52536   4.718   5.763  10.167 -0.1517 -0.3056 -0.2411
17032SOL    HW152537   4.758   5.835  10.217  0.6867  0.1248 -1.4763
17032SOL    HW252538   4.750   5.684  10.211  0.3076  0.0613  0.1125
17033SOL     OW52539   4.357   6.545   8.574 -0.4634 -0.2649 -0.0856
17033SOL    HW152540   4.364   6.524   8.667 -3.1846  0.4619  0.3682
17033SOL    HW252541   4.337   6.461   8.531 -0.1024 -0.4443  0.0926
17034SOL     OW52542   4.250   3.342  10.375  0.4838  0.1534 -0.4336
17034SOL    HW152543   4.188   3.401  10.415  0.8092 -0.5766  1.2189
17034SOL    HW252544   4.272   3.279  10.444  0.9600 -1.2488 -1.7945
17035SOL     OW52545   3.970   4.707  10.518 -0.2389  0.8918  0.4931
17035SOL    HW152546   3.933   4.627  10.482 -0.6896  0.8431  1.0460
17035SOL    HW252547   4.065   4.697  10.506 -0.4252  1.9897 -2.9520
17036SOL     OW52548   4.342   7.886   8.994  0.0490  0.1281 -0.1709
17036SOL    HW152549   4.433   7.863   8.974 -0.1393 -0.9250  0.1187
17036SOL    HW252550   4.295   7.803   8.985 -0.7154  0.4646  0.6583
17037SOL     OW52551   3.761   6.463  12.462  0.3632 -0.1794 -0.1401
17037SOL    HW152552   3.795   6.391  12.409 -3.0392 -2.1143  0.0342
17037SOL    HW252553   3.715   6.519  12.399  0.4568  0.1814  0.1129
17038SOL     OW52554   5.284   7.768   8.966 -0.2298 -0.3082  0.0642
17038SOL    HW152555   5.255   7.833   9.030 -0.6860  2.0199 -2.3135
17038SOL    HW252556   5.376   7.754   8.986 -0.4106  0.2074  1.3579
17039SOL     OW52557   4.775   6.147   9.484  0.2482 -0.4819 -0.0100
17039SOL    HW152558   4.751   6.171   9.573 -2.2228 -1.1060 -0.4456
17039SOL    HW252559   4.730   6.210   9.429 -0.2237 -1.5463 -0.8781
17040SOL     OW52560   4.705   4.906  11.161 -0.2101  0.4730 -0.3930
17040SOL    HW152561   4.610   4.899  11.153 -0.6825  1.4695  2.8921
17040SOL    HW252562   4.729   4.840  11.225  1.0791  1.2902  0.0022
17041SOL     OW52563   5.486   0.970  10.352 -0.4894 -0.0733  0.1630
17041SOL    HW152564   5.461   0.914  10.425 -0.8022 -2.3609 -1.6137
17041SOL    HW252565   5.553   0.921  10.305 -2.0753  0.1151 -2.5013
17042SOL     OW52566   4.801   6.820   9.230 -0.0846  0.3373 -0.0253
17042SOL    HW152567   4.859   6.843   9.303  1.2000  1.1593 -1.2764
17042SOL    HW252568   4.730   6.884   9.236  0.2751  0.7209  0.1962
17043SOL     OW52569   2.833   6.355  11.031  0.5767 -0.8219 -0.3429
17043SOL    HW152570   2.755   6.307  11.003 -1.0925  0.7845  1.2537
17043SOL    HW252571   2.835   6.343  11.126  1.6072  0.1111 -0.2263
17044SOL     OW52572   2.431   5.438   0.625  0.7295 -0.4784 -0.1359
17044SOL    HW152573   2.506   5.471   0.576  0.6123 -1.2354 -0.8651
17044SOL    HW252574   2.376   5.396   0.558 -1.3358  1.7431  0.0511
17045SOL     OW52575   3.723   5.577  10.837  0.4476 -0.6067  0.2663
17045SOL    HW152576   3.654   5.519  10.806  0.4639  0.4076 -1.8187
17045SOL    HW252577   3.803   5.524  10.832  0.1993 -0.9728  0.1506
17046SOL     OW52578   2.371   6.781   1.484  0.3281 -0.6215  0.4355
17046SOL    HW152579   2.429   6.794   1.410  2.6135 -1.3883  1.9756
17046SOL    HW252580   2.366   6.867   1.526  2.4324 -0.9871  1.6254
17047SOL     OW52581   5.112   7.752  12.085  0.0415  0.4047 -0.2665
17047SOL    HW152582   5.073   7.669  12.112  0.1857  0.4373  0.0497
17047SOL    HW252583   5.089   7.813  12.156  1.5999  0.1637  0.4841
17048SOL     OW52584   4.616   6.009  11.282  0.3499 -0.0669  0.0354
17048SOL    HW152585   4.579   5.966  11.359  1.8126  1.2769  1.5710
17048SOL    HW252586   4.646   5.937  11.226  1.3510 -1.0907  1.8002
17049SOL     OW52587   5.382   7.095  12.011  0.0293 -0.2997 -0.2835
17049SOL    HW152588   5.445   7.109  12.082 -0.7591  3.2630 -0.0633
17049SOL    HW252589   5.301   7.073  12.055  0.4022 -2.0864 -0.4083
17050SOL     OW52590   4.224   7.001  11.635 -0.1263 -0.0348  0.2308
17050SOL    HW152591   4.131   7.023  11.634  0.0522  0.7510 -1.1931
17050SOL    HW252592   4.263   7.054  11.565  0.9680 -2.2672 -0.9762
17051SOL     OW52593   4.208   5.670  10.881 -0.1942 -0.7757  0.4449
17051SOL    HW152594   4.266   5.662  10.957 -0.8523 -1.5929  0.8775
17051SOL    HW252595   4.230   5.755  10.843  1.0002 -0.8909  0.8305
17052SOL     OW52596   4.480   6.558   0.262 -0.0863 -0.3393 -0.1577
17052SOL    HW152597   4.424   6.484   0.238  1.3629 -2.0701  1.4601
17052SOL    HW252598   4.530   6.576   0.183 -0.5672 -1.0024 -0.6331
17053SOL     OW52599   5.597   5.068   1.211  0.1442 -0.3656 -0.0711
17053SOL    HW152600   5.587   5.083   1.117  0.0328  0.0397  0.0057
17053SOL    HW252601   5.508   5.061   1.244 -0.1994  4.4125  0.8014
17054SOL     OW52602   3.421   1.732   0.542 -0.2979  0.4750  0.4138
17054SOL    HW152603   3.455   1.682   0.616  0.2883  0.4973  0.1658
17054SOL    HW252604   3.344   1.683   0.514 -0.4472  0.3966  0.9533
17055SOL     OW52605   4.160   6.656  11.969  0.1956 -0.3761 -0.6783
17055SOL    HW152606   4.181   6.750  11.975  0.5630 -0.5409  1.1831
17055SOL    HW252607   4.233   6.619  11.919 -0.4401  0.4461 -2.2939
17056SOL     OW52608   3.318   5.178  11.548 -0.0121 -0.3173  0.6951
17056SOL    HW152609   3.331   5.145  11.459  0.6713  0.9401  0.3111
17056SOL    HW252610   3.302   5.271  11.537  0.8668  0.0019  1.9364
17057SOL     OW52611   4.233   5.927  10.754  0.1660  0.3062  0.3953
17057SOL    HW152612   4.146   5.952  10.723  0.3029 -0.1696 -0.4243
17057SOL    HW252613   4.255   5.993  10.819 -1.2674 -0.1848  1.4382
17058SOL     OW52614   3.096   7.104  10.311  0.2706  0.3837 -0.1094
17058SOL    HW152615   3.110   7.125  10.403 -2.8724  0.6885  0.4282
17058SOL    HW252616   3.003   7.124  10.296  0.8231  0.9845 -3.5383
17059SOL     OW52617   4.802   5.862  12.354 -0.3813 -0.2303 -0.6257
17059SOL    HW152618   4.740   5.916  12.403 -2.0557 -1.1117 -1.6699
17059SOL    HW252619   4.804   5.779  12.403  1.2356  0.3148  0.2870
17060SOL     OW52620   3.707   6.747  11.623  0.9155  0.3407  0.1608
17060SOL    HW152621   3.749   6.784  11.546  1.2867 -0.8689 -0.2290
17060SOL    HW252622   3.780   6.715  11.677  0.6117  0.4067  0.6209
17061SOL     OW52623   5.244   7.942  11.486  0.2278  0.1781 -0.5671
17061SOL    HW152624   5.177   7.948  11.417  0.0760  1.6511 -0.3100
17061SOL    HW252625   5.318   7.899  11.443 -0.0269  0.6740 -1.5302
17062SOL     OW52626   5.560   5.548   0.358  0.1627  0.5956 -0.0209
17062SOL    HW152627   5.495   5.585   0.298  2.0969  1.1502 -1.9020
17062SOL    HW252628   5.614   5.623   0.383 -0.1552  0.2353  1.8866
17063SOL     OW52629   4.224   5.372   0.617  0.0687  0.3269 -0.5081
17063SOL    HW152630   4.246   5.384   0.525  1.5664 -0.5020 -0.2975
17063SOL    HW252631   4.137   5.410   0.627 -0.0074  0.6479 -2.2038
17064SOL     OW52632   2.580   7.592  12.050  0.0949 -0.1469 -0.5727
17064SOL    HW152633   2.573   7.518  12.110  1.2277  0.8649  0.8734
17064SOL    HW252634   2.668   7.585  12.013 -0.1915 -0.1245 -1.2854
17065SOL     OW52635   5.120   5.843  11.889 -0.6940 -0.0144  0.2753
17065SOL    HW152636   5.161   5.876  11.810 -2.7924 -2.7077 -2.1573
17065SOL    HW252637   5.051   5.906  11.910  0.0297  0.8340  0.1580
17066SOL     OW52638   3.545   6.927  12.255  0.4953 -0.2036  0.2067
17066SOL    HW152639   3.517   6.836  12.247  2.3448 -1.0883  2.5444
17066SOL    HW252640   3.578   6.950  12.168  2.6545 -2.7983  0.2079
17067SOL     OW52641   5.236   6.123  12.316  0.0504 -0.2956  0.3065
17067SOL    HW152642   5.219   6.193  12.252  0.2952  0.2932  0.8807
17067SOL    HW252643   5.329   6.129  12.335  0.2309 -1.2549 -0.1730
17068SOL     OW52644   3.499   6.263   0.505 -0.4359  0.7364 -0.1164
17068SOL    HW152645   3.516   6.346   0.550 -0.3617  1.3034 -1.1704
17068SOL    HW252646   3.584   6.236   0.471 -0.7175  0.9755 -1.0268
17069SOL     OW52647   4.290   0.868   9.967 -0.3429  0.3868 -0.0433
17069SOL    HW152648   4.295   0.773   9.972 -1.0103  0.3960  1.4046
17069SOL    HW252649   4.209   0.890  10.014  0.3827  1.7285  0.6348
17070SOL     OW52650   2.488   7.383  11.581 -0.0057  0.2028  0.1871
17070SOL    HW152651   2.482   7.455  11.519 -0.5052  1.1248  1.2732
17070SOL    HW252652   2.557   7.410  11.642  1.6633 -1.4211 -0.8371
17071SOL     OW52653   3.397   5.080  11.304  0.1372 -0.1026 -0.1635
17071SOL    HW152654   3.431   5.032  11.229 -1.0737  2.0629 -2.2372
17071SOL    HW252655   3.441   5.165  11.300  0.0631  0.0500  1.6207
17072SOL     OW52656   6.115   0.019   9.608 -0.0049  0.1260 -0.1416
17072SOL    HW152657   6.190   0.001   9.665  0.5028 -0.4956 -0.9800
17072SOL    HW252658   6.070   0.093   9.650  0.1832 -0.4839  1.2125
17073SOL     OW52659   2.850   6.932  11.514  0.0090  0.3531  0.2809
17073SOL    HW152660   2.834   6.963  11.604 -0.3071  1.3464 -0.1015
17073SOL    HW252661   2.826   7.006  11.459 -0.8432 -0.6264 -0.6978
17074SOL     OW52662   3.117   5.313  11.342 -0.4166 -0.0979 -0.2370
17074SOL    HW152663   3.135   5.388  11.399  3.6926 -0.6626 -0.4296
17074SOL    HW252664   3.070   5.350  11.267 -1.5902  1.5661  1.2376
17075SOL     OW52665   5.486   4.810  12.294  0.4821  0.3213 -0.0832
17075SOL    HW152666   5.572   4.774  12.315  0.1996 -0.5104 -0.3521
17075SOL    HW252667   5.469   4.872  12.366 -0.5823 -2.6273  2.4496
17076SOL     OW52668   4.342   6.082   0.294  0.5028 -0.2265  0.3043
17076SOL    HW152669   4.277   6.149   0.312  1.5588  0.1157  3.5830
17076SOL    HW252670   4.315   6.007   0.347  2.6752 -0.0864  1.7447
17077SOL     OW52671   4.419   5.601  11.354  0.4468 -0.1660 -0.0943
17077SOL    HW152672   4.410   5.564  11.442 -0.8389  0.5186  0.0904
17077SOL    HW252673   4.513   5.618  11.345  0.7020 -0.9253  0.8535
17078SOL     OW52674   5.204   6.433  11.043 -0.1394  0.1930 -0.2225
17078SOL    HW152675   5.163   6.366  10.988 -0.2168  1.3223 -1.6020
17078SOL    HW252676   5.258   6.483  10.983  1.2443  0.3500  1.1030
17079SOL     OW52677   4.482   0.436   0.477  0.3082 -0.4313 -0.7434
17079SOL    HW152678   4.418   0.419   0.408  1.8032 -0.9349 -2.0553
17079SOL    HW252679   4.541   0.361   0.474  0.6412 -0.2596  0.8353
17080SOL     OW52680   6.510   6.077  11.083  0.2788 -0.3130 -0.6332
17080SOL    HW152681   6.480   5.995  11.042 -1.8509  1.2885 -2.5284
17080SOL    HW252682   6.444   6.096  11.150  0.6361  0.0141 -0.3662
17081SOL     OW52683   4.658   5.841  10.784 -0.4689 -0.3732 -0.1567
17081SOL    HW152684   4.748   5.810  10.772  0.1551  1.5263 -0.8109
17081SOL    HW252685   4.619   5.778  10.845  2.0439  0.0518  2.0975
17082SOL     OW52686   5.871   7.450  12.119  0.1180 -0.3232 -0.2676
17082SOL    HW152687   5.860   7.499  12.200 -0.4160 -1.0533  0.1045
17082SOL    HW252688   5.822   7.500  12.054  1.0410  0.5914 -0.2941
17083SOL     OW52689   5.571   0.799  11.012  0.3697  0.4441  0.3853
17083SOL    HW152690   5.589   0.889  11.040 -0.8693  0.6896  0.4411
17083SOL    HW252691   5.557   0.751  11.094 -0.6990  0.5919  0.2949
17084SOL     OW52692   4.042   6.849  12.344  0.0458 -0.0552 -0.6378
17084SOL    HW152693   4.052   6.944  12.346  1.3996 -0.1847  1.1315
17084SOL    HW252694   3.968   6.832  12.403  0.4277 -0.1552 -0.1867
17085SOL     OW52695   3.891   6.733   0.085  0.1913 -0.1154  0.1026
17085SOL    HW152696   3.853   6.809   0.041 -0.2811 -0.4711 -0.1076
17085SOL    HW252697   3.857   6.658   0.036  1.1051 -0.4433 -0.0501
17086SOL     OW52698   2.512   6.721   0.274  0.0988  0.0432  0.1429
17086SOL    HW152699   2.524   6.643   0.220 -0.2586  0.4620 -0.5533
17086SOL    HW252700   2.601   6.746   0.300  0.1308 -1.5404  1.7721
17087SOL     OW52701   2.976   7.320  10.872 -0.1569  0.1912 -0.0610
17087SOL    HW152702   2.942   7.410  10.879 -3.8735 -1.0991  1.2331
17087SOL    HW252703   2.950   7.292  10.785 -1.0512 -0.3023  0.3525
17088SOL     OW52704   6.138   6.526  11.362 -0.0429  0.1156  0.1883
17088SOL    HW152705   6.136   6.457  11.428  1.2038  0.1280  0.2502
17088SOL    HW252706   6.221   6.515  11.317  0.0624  1.4144  0.0202
17089SOL     OW52707   2.572   4.758  11.292 -0.0118 -0.1722 -0.3163
17089SOL    HW152708   2.478   4.762  11.280 -0.0883  2.4371  0.6117
17089SOL    HW252709   2.608   4.809  11.219  0.5452  0.5692  0.4641
17090SOL     OW52710   3.646   6.505  11.380  0.7168 -0.4447  0.3850
17090SOL    HW152711   3.642   6.410  11.367  0.7364 -0.3196 -0.6032
17090SOL    HW252712   3.719   6.534  11.326  1.9870 -0.0926  2.2337
17091SOL     OW52713   3.544   6.146  10.410 -0.1158  0.1773  0.7497
17091SOL    HW152714   3.598   6.068  10.416  2.0070  1.4331 -0.8045
17091SOL    HW252715   3.507   6.156  10.498  2.0967 -0.8141  1.8588
17092SOL     OW52716   2.701   4.961  10.482 -0.8693  0.1602  0.0125
17092SOL    HW152717   2.631   5.011  10.440 -1.0892 -0.3666 -0.2500
17092SOL    HW252718   2.656   4.892  10.531 -0.5483  0.0192  0.1130
17093SOL     OW52719   5.499   6.177  10.537 -0.0212  1.0025  0.0327
17093SOL    HW152720   5.507   6.206  10.628 -1.6826  2.7412 -0.3196
17093SOL    HW252721   5.473   6.086  10.543  2.4631  0.2714  1.2237
17094SOL     OW52722   4.714   6.115  10.856  0.1784 -0.0185 -0.0126
17094SOL    HW152723   4.633   6.156  10.883  0.3634  0.9061 -0.8010
17094SOL    HW252724   4.690   6.024  10.836 -0.4274 -0.0469  0.8123
17095SOL     OW52725   3.442   6.522  11.803  0.0318 -0.0968 -0.2540
17095SOL    HW152726   3.479   6.446  11.758 -0.4567  0.3085 -1.3810
17095SOL    HW252727   3.361   6.490  11.842 -0.5859  0.0012 -1.4006
17096SOL     OW52728   3.980   7.571  11.793  0.2161 -0.5142 -0.0381
17096SOL    HW152729   4.064   7.594  11.834  0.4715 -0.9850 -0.2817
17096SOL    HW252730   3.958   7.646  11.739 -0.0298  0.0359  0.8153
17097SOL     OW52731   1.622   0.609  12.019 -0.6267  0.1426 -0.4850
17097SOL    HW152732   1.564   0.660  12.075  0.5790  2.2439 -1.0357
17097SOL    HW252733   1.591   0.625  11.930 -0.3631 -0.2599 -0.6541
17098SOL     OW52734   4.010   7.262  12.434 -0.0447 -0.7273  0.0665
17098SOL    HW152735   3.956   7.284  12.510 -1.0222 -0.3593 -0.7149
17098SOL    HW252736   4.074   7.333  12.429  0.0490 -0.7699  0.5513
17099SOL     OW52737   2.410   5.080  10.060  0.1902 -0.4013  0.2177
17099SOL    HW152738   2.491   5.125  10.037 -1.8758  2.4742 -2.4175
17099SOL    HW252739   2.400   5.013   9.993  0.2912 -0.6315  0.4322
17100SOL     OW52740   3.884   3.708  11.961 -0.3210 -0.0301 -0.0732
17100SOL    HW152741   3.955   3.667  12.011  0.1773  1.8797  0.8661
17100SOL    HW252742   3.823   3.636  11.943  1.3956 -1.5409 -0.1332
17101SOL     OW52743   4.477   5.941  10.222  0.2472  0.5792  0.1531
17101SOL    HW152744   4.413   5.876  10.250 -0.4650  0.6941 -1.1421
17101SOL    HW252745   4.559   5.892  10.214  0.5092  0.5463  2.3773
17102SOL     OW52746   4.343   3.698  12.197 -0.0898 -0.0248 -0.3217
17102SOL    HW152747   4.392   3.765  12.245 -2.6125  0.8107  1.2648
17102SOL    HW252748   4.347   3.727  12.106  2.7306 -0.3124 -0.3698
17103SOL     OW52749   3.697   5.820  12.441  0.1591 -0.4165 -0.2241
17103SOL    HW152750   3.631   5.849  12.378 -2.1965 -3.7648  0.4135
17103SOL    HW252751   3.759   5.769  12.389  0.1230 -0.3757 -0.3086
17104SOL     OW52752   3.069   6.898  11.247 -0.0483 -0.2581  0.2534
17104SOL    HW152753   3.022   6.909  11.164 -0.0794 -0.7853  0.1974
17104SOL    HW252754   3.161   6.895  11.222  0.3016  3.3067  0.5826
17105SOL     OW52755   3.927   6.645  11.808  0.2285 -0.3566  0.1935
17105SOL    HW152756   3.879   6.661  11.889  1.2100  1.1557  0.5256
17105SOL    HW252757   4.018   6.630  11.836  0.4657 -0.4075 -0.5815
17106SOL     OW52758   3.356   7.268  12.071  0.0004 -0.3765  0.4264
17106SOL    HW152759   3.354   7.256  12.166  2.3474 -0.0668  0.5605
17106SOL    HW252760   3.271   7.235  12.041 -0.7501 -0.5565  2.6065
17107SOL     OW52761   4.317   6.477   1.059 -0.2482  0.2095 -0.4484
17107SOL    HW152762   4.351   6.393   1.091  1.4313  1.1138  0.2925
17107SOL    HW252763   4.222   6.469   1.068 -0.1465 -1.6774 -0.5966
17108SOL     OW52764   5.138   6.545  10.060 -0.0513  0.0146  0.4728
17108SOL    HW152765   5.154   6.597  10.139 -0.2191  0.4140  0.2451
17108SOL    HW252766   5.214   6.562  10.004  0.0478 -0.2370  0.5294
17109SOL     OW52767   4.017   3.956  11.546  0.8412  0.1914  0.0822
17109SOL    HW152768   4.070   3.908  11.483  0.1555 -0.2513 -0.1711
17109SOL    HW252769   4.062   4.039  11.557  0.4687  0.6945 -1.7522
17110SOL     OW52770   3.359   6.470   1.336 -0.2802  0.6874 -0.0664
17110SOL    HW152771   3.399   6.391   1.372 -0.0310  1.4439  1.4295
17110SOL    HW252772   3.380   6.468   1.243  0.4596 -0.5651  0.1070
17111SOL     OW52773   4.814   7.984  12.220  0.1031  0.0961 -0.3742
17111SOL    HW152774   4.735   8.038  12.214  0.0063 -0.1069 -1.0185
17111SOL    HW252775   4.807   7.923  12.146 -0.4325 -1.6588  1.0367
17112SOL     OW52776   5.730   7.721  12.140 -0.3211  0.5414  0.1509
17112SOL    HW152777   5.751   7.801  12.188  0.6888  1.6787 -2.0034
17112SOL    HW252778   5.773   7.733  12.055  1.0773 -2.9184  0.1991
17113SOL     OW52779   2.289   0.506  11.338  0.9179  0.4131  0.2511
17113SOL    HW152780   2.353   0.475  11.274 -0.4697 -0.4663 -0.7777
17113SOL    HW252781   2.243   0.427  11.366 -1.2972  1.2116 -0.8586
17114SOL     OW52782   5.660   5.775  12.032  0.1162  0.4474 -0.1689
17114SOL    HW152783   5.701   5.845  12.082  0.6551 -0.6190  0.9149
17114SOL    HW252784   5.733   5.722  12.000 -0.3441 -0.7981  0.7885
17115SOL     OW52785   2.945   7.187   0.432 -0.0952 -0.0967  0.1471
17115SOL    HW152786   2.987   7.104   0.407 -0.4158 -0.4613  0.7895
17115SOL    HW252787   3.002   7.222   0.500 -0.3615 -0.1646  0.4066
17116SOL     OW52788   4.261   6.003  10.073  0.4868 -0.3554 -0.1835
17116SOL    HW152789   4.210   5.928  10.103 -0.6216  0.4644  0.0378
17116SOL    HW252790   4.345   5.994  10.118 -0.0102 -0.8958  0.6610
17117SOL     OW52791   4.475   6.605  11.304  0.0465  0.5612 -0.1457
17117SOL    HW152792   4.492   6.564  11.388 -0.8985 -1.3703 -0.8293
17117SOL    HW252793   4.562   6.625  11.269  0.9425 -3.8726 -1.1239
17118SOL     OW52794   3.567   7.657   1.202 -0.0443  0.1908  0.4892
17118SOL    HW152795   3.494   7.658   1.140 -0.2682 -1.1993  0.7126
17118SOL    HW252796   3.607   7.571   1.191  0.2077  0.1052  1.9365
17119SOL     OW52797   4.914   5.792  11.436  0.4143  0.1649 -0.4763
17119SOL    HW152798   4.868   5.804  11.519  0.2526 -0.5889 -0.4454
17119SOL    HW252799   4.913   5.878  11.395 -0.2851  0.3528 -0.0887
17120SOL     OW52800   3.856   7.163  12.212  0.2839  0.0550  0.2869
17120SOL    HW152801   3.898   7.216  12.279  0.1248 -0.6060  0.9148
17120SOL    HW252802   3.875   7.209  12.130 -0.2434  1.3351  0.8552
17121SOL     OW52803   2.194   6.019  11.598 -0.1953  0.0848  0.1552
17121SOL    HW152804   2.246   6.088  11.639  0.0076  0.9452 -1.4561
17121SOL    HW252805   2.103   6.046  11.613 -0.2002  2.4712 -2.9804
17122SOL     OW52806   4.712   5.453  11.814 -0.1737  0.2159  0.2194
17122SOL    HW152807   4.730   5.365  11.847 -1.0218 -0.1787 -0.3462
17122SOL    HW252808   4.796   5.499  11.822  0.5272 -0.9154 -0.3457
17123SOL     OW52809   4.853   5.669  10.577 -0.4804 -0.4028 -0.3592
17123SOL    HW152810   4.849   5.765  10.586  0.7276 -0.5043  2.4044
17123SOL    HW252811   4.945   5.648  10.593 -1.1156 -2.1424  1.4102
17124SOL     OW52812   5.591   5.291  11.570  0.2762 -0.5076  0.3541
17124SOL    HW152813   5.625   5.380  11.555 -1.3357  0.0575 -0.2082
17124SOL    HW252814   5.532   5.301  11.645  1.2464 -1.4433  1.2642
17125SOL     OW52815   4.526   6.783  12.338  0.2995 -0.5553 -0.1959
17125SOL    HW152816   4.433   6.762  12.346  0.2886  0.1078  2.0669
17125SOL    HW252817   4.528   6.867  12.292 -0.3371  0.0532  0.8402
17126SOL     OW52818   4.190   5.313  12.341 -0.6566  0.0987 -0.1605
17126SOL    HW152819   4.112   5.278  12.385  0.9239 -0.2596  2.5150
17126SOL    HW252820   4.224   5.379  12.401  1.6289 -0.3929 -0.8261
17127SOL     OW52821   5.644   6.709   0.624  0.0594 -0.1824 -0.4722
17127SOL    HW152822   5.652   6.707   0.719 -0.2821  0.2551 -0.4320
17127SOL    HW252823   5.729   6.741   0.594 -0.0708  0.3591 -0.2750
17128SOL     OW52824   3.703   6.076  12.192 -0.5346 -0.4975 -0.1767
17128SOL    HW152825   3.620   6.030  12.206 -1.5113  1.1273 -0.2838
17128SOL    HW252826   3.711   6.082  12.097  0.7023 -2.2808 -0.2308
17129SOL     OW52827   4.987   6.243  11.637 -0.0840 -0.1997  0.5914
17129SOL    HW152828   4.909   6.189  11.639 -0.1366 -0.3125 -1.7240
17129SOL    HW252829   5.060   6.182  11.647 -0.0960 -0.9856 -2.8551
17130SOL     OW52830   5.468   0.176  11.703 -0.0349 -0.1249 -0.2743
17130SOL    HW152831   5.539   0.239  11.716 -0.1858 -0.1923  1.1105
17130SOL    HW252832   5.470   0.123  11.783  0.7147 -2.5429 -1.8161
17131SOL     OW52833   3.133   6.098  10.627 -0.1834  0.4913  0.2760
17131SOL    HW152834   3.079   6.116  10.704  0.9009  1.7401  0.7818
17131SOL    HW252835   3.107   6.165  10.564 -1.3370 -0.7585 -0.6193
17132SOL     OW52836   4.148   5.944  11.075 -0.0978 -0.4769 -0.3738
17132SOL    HW152837   4.061   5.907  11.064 -0.3552  0.3876 -1.4192
17132SOL    HW252838   4.135   6.019  11.133 -0.1347 -0.0773 -0.8925
17133SOL     OW52839   3.994   6.204  11.645 -0.4631  0.0135 -0.0040
17133SOL    HW152840   3.953   6.282  11.682 -1.7210 -0.9518  0.7208
17133SOL    HW252841   3.942   6.183  11.568  0.2245  0.2082 -0.5301
17134SOL     OW52842   4.159   7.479  12.465  0.4011  0.4536  0.5027
17134SOL    HW152843   4.082   7.527  12.496  0.6810  1.3307 -0.0979
17134SOL    HW252844   4.231   7.514  12.517  0.9164  2.1152 -1.1944
17135SOL     OW52845   1.809   1.176   0.517 -0.0172 -0.0620  0.2298
17135SOL    HW152846   1.905   1.169   0.524 -0.0476 -0.5939  0.1920
17135SOL    HW252847   1.779   1.177   0.607 -0.0568 -1.3461  0.2576
17136SOL     OW52848   3.857   6.255  12.343  0.6993 -0.6696  0.3038
17136SOL    HW152849   3.894   6.291  12.262 -2.7746  0.2772 -1.0334
17136SOL    HW252850   3.815   6.173  12.315 -0.9682 -0.0769  0.9990
17137SOL     OW52851   5.128   6.205   1.054 -0.0929  0.1611  0.2525
17137SOL    HW152852   5.183   6.265   1.104  0.5434  0.5027 -0.8275
17137SOL    HW252853   5.121   6.128   1.109  0.4500  0.5987  0.9475
17138SOL     OW52854   2.746   3.969   1.120 -0.0244  0.0585  0.1204
17138SOL    HW152855   2.820   3.959   1.060  2.2424  0.5968  2.6574
17138SOL    HW252856   2.675   3.919   1.079  0.6637  1.9802 -3.9591
17139SOL     OW52857   3.140   6.667  11.013 -0.1832 -0.7353 -0.2521
17139SOL    HW152858   3.229   6.694  11.033 -0.5640  0.0445  0.4299
17139SOL    HW252859   3.096   6.747  10.985 -0.5820 -1.1830 -0.9433
17140SOL     OW52860   5.103   5.885  12.371 -0.0807  0.1679 -0.3686
17140SOL    HW152861   5.032   5.913  12.312 -1.1511  0.5250  1.0475
17140SOL    HW252862   5.171   5.951  12.358 -0.0528 -0.0807 -1.6223
17141SOL     OW52863   3.861   6.232  10.376  0.4127  0.2898  0.3018
17141SOL    HW152864   3.945   6.275  10.387  0.1531  0.6317  1.0180
17141SOL    HW252865   3.804   6.272  10.441  0.4002 -1.7709  1.6678
17142SOL     OW52866   3.217   7.291  11.564  0.2951  0.2319 -0.2283
17142SOL    HW152867   3.134   7.287  11.611  0.4499 -0.6763 -0.0226
17142SOL    HW252868   3.272   7.349  11.617  0.9179 -1.8010  1.4541
17143SOL     OW52869   3.100   7.211  11.292  0.3866 -0.4535  0.1642
17143SOL    HW152870   3.145   7.245  11.369 -0.1806 -0.5298  0.5367
17143SOL    HW252871   3.092   7.117  11.308 -1.7909 -0.1580  1.1215
17144SOL     OW52872   6.138   7.764  11.823  0.3741 -0.1545 -0.0574
17144SOL    HW152873   6.226   7.800  11.827  0.6617 -0.7452 -0.7746
17144SOL    HW252874   6.099   7.805  11.746  0.0541  0.0353  0.2045
17145SOL     OW52875   6.049   6.760  10.945  0.0962 -0.9728  0.3982
17145SOL    HW152876   6.106   6.795  11.014 -0.2396  0.8553 -0.2018
17145SOL    HW252877   6.104   6.696  10.900  1.0804 -0.5434  0.9421
17146SOL     OW52878   6.049   0.026  11.966 -0.1108  0.2540 -0.4917
17146SOL    HW152879   6.012   0.054  11.883  1.3425  1.3356 -0.8097
17146SOL    HW252880   6.141   0.008  11.947  0.0354 -0.3890  0.6890
17147SOL     OW52881   3.533   7.822  11.746  0.3549  0.3650  0.0897
17147SOL    HW152882   3.560   7.731  11.736  0.0855  0.3077 -0.1545
17147SOL    HW252883   3.506   7.848  11.658 -1.4920  0.0577  0.5239
17148SOL     OW52884   3.705   5.896  11.747 -0.0774 -0.0265 -0.6499
17148SOL    HW152885   3.704   5.883  11.842  1.2539 -0.0373 -0.6237
17148SOL    HW252886   3.643   5.967  11.732  0.9827  1.1815  0.4377
17149SOL     OW52887   5.615   7.494  11.588  0.5887  0.6802 -0.6189
17149SOL    HW152888   5.530   7.452  11.573  1.2773 -0.7491 -0.6649
17149SOL    HW252889   5.595   7.567  11.648 -0.3222 -1.2304  1.5928
17150SOL     OW52890   4.413   6.360   9.805  0.0829  0.0655 -0.2251
17150SOL    HW152891   4.430   6.271   9.774  0.3082  0.4060 -1.1074
17150SOL    HW252892   4.374   6.348   9.891  1.0339 -0.8618  0.1037
17151SOL     OW52893   5.016   6.486   0.188  0.2265 -0.5207  0.1215
17151SOL    HW152894   5.013   6.445   0.101 -0.6625 -1.2066  0.4586
17151SOL    HW252895   5.060   6.570   0.173 -0.7991 -0.1732 -1.1783
17152SOL     OW52896   3.621   0.500  12.028 -0.1156  0.1751 -0.2576
17152SOL    HW152897   3.527   0.512  12.017  0.2399  0.8246 -3.8557
17152SOL    HW252898   3.638   0.413  11.991  0.7781  0.4034 -0.4017
17153SOL     OW52899   6.055   6.705  12.340 -0.2103  0.1584  0.5589
17153SOL    HW152900   6.034   6.759  12.263 -1.1363 -0.6117  0.2661
17153SOL    HW252901   6.085   6.622  12.303  1.1023  0.3981  1.0155
17154SOL     OW52902   4.133   4.370   0.606 -0.9837  0.3215  0.1366
17154SOL    HW152903   4.184   4.401   0.681 -3.0051 -0.4192  1.9058
17154SOL    HW252904   4.174   4.413   0.531  0.0523  2.4843  1.8207
17155SOL     OW52905   3.612   5.910   0.376 -0.2438  0.3073 -0.2439
17155SOL    HW152906   3.681   5.873   0.321 -0.4247 -0.1652 -0.1500
17155SOL    HW252907   3.647   5.995   0.404  0.6727 -0.3160  0.5424
17156SOL     OW52908   5.369   0.761  11.670  0.1759 -0.4200 -0.0263
17156SOL    HW152909   5.350   0.825  11.602  2.9544 -1.0627 -1.5616
17156SOL    HW252910   5.440   0.800  11.721 -1.2729 -0.3303  2.0516
17157SOL     OW52911   5.040   7.263  12.284 -0.1340 -0.4417  0.8149
17157SOL    HW152912   4.950   7.285  12.259 -0.6447 -2.1034  1.0833
17157SOL    HW252913   5.047   7.292  12.375 -0.3786 -0.2606  0.7776
17158SOL     OW52914   4.544   5.395  11.053  0.4363  0.6510 -0.0253
17158SOL    HW152915   4.456   5.385  11.017 -0.0898  1.7546  0.8808
17158SOL    HW252916   4.540   5.353  11.138  0.6506  1.0947  0.2069
17159SOL     OW52917   5.241   0.207  10.006  0.0642 -0.0566 -0.5322
17159SOL    HW152918   5.216   0.280  10.064  1.1558  1.4931 -1.9239
17159SOL    HW252919   5.335   0.199  10.017  0.1221 -0.4573 -1.2772
17160SOL     OW52920   4.602   6.234   0.340  0.5087  0.3276 -0.3712
17160SOL    HW152921   4.598   6.330   0.336  3.1846  0.4792 -1.5132
17160SOL    HW252922   4.688   6.216   0.378  0.3305 -1.6411 -0.8256
17161SOL     OW52923   3.765   6.905   0.254 -0.5167 -1.1253 -0.1636
17161SOL    HW152924   3.796   6.985   0.298 -0.8584 -1.6755  1.1345
17161SOL    HW252925   3.844   6.861   0.226 -0.2470 -1.0536  0.4619
17162SOL     OW52926   3.763   6.651   9.938  0.8413  0.1582  0.6011
17162SOL    HW152927   3.687   6.643   9.881  0.4829  0.0539  1.0871
17162SOL    HW252928   3.778   6.563   9.972  0.4189  0.4147  1.4686
17163SOL     OW52929   4.557   5.582   0.160  0.0621 -0.2806  0.1660
17163SOL    HW152930   4.575   5.514   0.225  2.5589 -1.2754 -1.4030
17163SOL    HW252931   4.471   5.558   0.124 -1.6209  0.5595  3.2302
17164SOL     OW52932   3.244   4.909  11.646 -0.8528  0.2721 -0.5111
17164SOL    HW152933   3.149   4.911  11.659 -0.7748  1.0189 -0.0458
17164SOL    HW252934   3.270   5.000  11.641 -0.2925  0.0603 -1.7194
17165SOL     OW52935   3.758   6.360  11.963  0.5170  0.3454  0.3761
17165SOL    HW152936   3.756   6.371  11.868  0.1529 -2.3283 -0.0144
17165SOL    HW252937   3.678   6.312  11.983  0.0298  1.8259  2.2258
17166SOL     OW52938   3.775   6.173  11.108 -0.1101 -0.1848 -0.1127
17166SOL    HW152939   3.855   6.223  11.126 -1.0179  0.9069  1.1192
17166SOL    HW252940   3.740   6.212  11.028 -0.6864  1.0674  0.7076
17167SOL     OW52941   4.961   6.050  11.387 -0.0052 -0.0221 -0.0147
17167SOL    HW152942   4.946   6.101  11.466 -0.6326 -0.1636 -0.0350
17167SOL    HW252943   5.056   6.047  11.377  0.0450  1.1275 -0.0043
17168SOL     OW52944   2.700   7.596  11.610 -0.0179  0.5652  0.2721
17168SOL    HW152945   2.730   7.613  11.699 -1.6478  2.1508  0.5750
17168SOL    HW252946   2.691   7.683  11.571 -2.2258  0.0781 -0.4306
17169SOL     OW52947   4.571   5.585  12.340  0.2327  0.2420 -0.8328
17169SOL    HW152948   4.642   5.589  12.405  1.5353 -1.4119 -2.0431
17169SOL    HW252949   4.538   5.496  12.347  0.8312 -0.1795 -2.8205
17170SOL     OW52950   5.764   6.376  12.442  0.7657  0.1262  0.4264
17170SOL    HW152951   5.781   6.466  12.469  1.4185  0.1705 -0.1072
17170SOL    HW252952   5.780   6.376  12.348 -1.6925  0.0360 -0.0761
17171SOL     OW52953   3.377   3.863  10.608  0.3446 -0.4354 -0.3667
17171SOL    HW152954   3.424   3.921  10.548  1.4293 -0.4252  0.4589
17171SOL    HW252955   3.443   3.801  10.638 -0.1091 -0.2909  0.9940
17172SOL     OW52956   5.052   0.764   0.403  0.2764  0.0151  0.5584
17172SOL    HW152957   5.147   0.778   0.402  0.3713 -0.5442  1.1675
17172SOL    HW252958   5.026   0.774   0.312  1.1851 -1.5254  0.0874
17173SOL     OW52959   3.567   6.740   1.139  0.0528  0.2381 -0.3647
17173SOL    HW152960   3.606   6.736   1.226  1.4955  0.3294 -0.9839
17173SOL    HW252961   3.578   6.831   1.112 -1.6717  0.5559 -0.0973
17174SOL     OW52962   3.365   7.475  10.731 -0.1381  0.3937 -0.6207
17174SOL    HW152963   3.281   7.506  10.767 -0.2837 -0.8225  0.1480
17174SOL    HW252964   3.342   7.434  10.648 -0.3303 -0.0270 -0.3637
17175SOL     OW52965   2.924   7.295  12.321  0.3634 -0.3635  0.3166
17175SOL    HW152966   2.923   7.257  12.234  0.9513 -3.2247  1.4308
17175SOL    HW252967   2.997   7.357  12.320  1.6663 -1.8575 -0.6920
17176SOL     OW52968   4.862   6.104   9.999  0.6730 -0.2793  0.0285
17176SOL    HW152969   4.906   6.137   9.920  1.4935  0.1584  0.6410
17176SOL    HW252970   4.779   6.152  10.002  0.9019  0.1451 -0.2562
17177SOL     OW52971   6.432   7.868  11.761 -0.0747 -0.0335 -0.0481
17177SOL    HW152972   6.407   7.837  11.675  1.1225  0.6116 -0.6616
17177SOL    HW252973   6.436   7.964  11.752 -0.1293  0.0552  0.7687
17178SOL     OW52974   3.236   6.665  11.503  0.7034  0.0782  0.3743
17178SOL    HW152975   3.287   6.707  11.572  1.7109  0.7919 -0.7750
17178SOL    HW252976   3.188   6.595  11.547 -0.8530  2.2468  2.3443
17179SOL     OW52977   6.324   4.106  12.135 -0.2817 -0.1255  0.4340
17179SOL    HW152978   6.291   4.193  12.155  0.6193  0.5865 -0.9918
17179SOL    HW252979   6.418   4.112  12.147 -0.1341 -0.7074 -0.3195
17180SOL     OW52980   4.155   6.497  12.204 -0.0403 -0.0370  0.0666
17180SOL    HW152981   4.092   6.434  12.170 -0.4803 -0.5780  1.7979
17180SOL    HW252982   4.157   6.566  12.138 -0.7144 -1.1024 -1.1208
17181SOL     OW52983   5.246   6.441   0.502 -0.4115  0.1981 -0.2253
17181SOL    HW152984   5.287   6.526   0.487 -0.3619 -0.2116 -2.7503
17181SOL    HW252985   5.310   6.392   0.553 -1.0611  2.0837  2.6763
17182SOL     OW52986   2.596   6.444  10.884 -0.2709  0.0159  0.3101
17182SOL    HW152987   2.597   6.510  10.815 -0.5073 -0.7322 -0.4382
17182SOL    HW252988   2.658   6.476  10.950 -1.0616  1.4087  0.4047
17183SOL     OW52989   3.818   5.820  12.054  0.3783 -0.5883  0.3829
17183SOL    HW152990   3.723   5.824  12.065  0.1949  0.5188 -1.2804
17183SOL    HW252991   3.833   5.732  12.018 -0.1342 -0.4380 -0.2282
17184SOL     OW52992   5.309   5.299   0.008  0.1319  0.1877  0.2472
17184SOL    HW152993   5.250   5.363  -0.031  0.7446  1.1312  0.8289
17184SOL    HW252994   5.294   5.307   0.103  1.5396  0.8216  0.4419
17185SOL     OW52995   2.872   7.388  11.519  0.4992 -0.2398  0.0845
17185SOL    HW152996   2.904   7.362  11.605  0.4988 -0.5326 -0.0025
17185SOL    HW252997   2.786   7.425  11.535  0.2314 -0.8809  0.1333
17186SOL     OW52998   5.119   5.711  11.587 -0.5225 -0.0408  0.1053
17186SOL    HW152999   5.042   5.735  11.536  0.2373  1.7423 -0.2895
17186SOL    HW253000   5.165   5.794  11.602  1.0957 -0.9877  0.6941
17187SOL     OW53001   3.133   7.173  11.025  0.7346 -0.2121  0.3347
17187SOL    HW153002   3.117   7.192  11.118 -0.5014 -2.3146  0.6093
17187SOL    HW253003   3.076   7.234  10.979 -0.6558 -0.9229  1.0595
17188SOL     OW53004   5.904   5.923  10.683  0.3845  0.0080 -0.1347
17188SOL    HW153005   5.955   5.981  10.740 -0.3799 -0.6422  1.2526
17188SOL    HW253006   5.851   5.871  10.743 -2.4110  1.0831 -1.5045
17189SOL     OW53007   4.415   5.909   8.578  0.1513  0.9306 -0.1667
17189SOL    HW153008   4.407   5.821   8.615  0.4131  1.5881  1.5241
17189SOL    HW253009   4.326   5.931   8.549 -0.3939  0.9525  1.4363
17190SOL     OW53010   3.433   6.243   0.165 -0.4383  0.4736  0.0274
17190SOL    HW153011   3.507   6.275   0.114 -0.0207 -0.6302 -0.0888
17190SOL    HW253012   3.394   6.174   0.110 -0.0416 -0.6636  1.1157
17191SOL     OW53013   6.352   7.146   0.409 -0.4343  0.3733 -0.3358
17191SOL    HW153014   6.417   7.211   0.435 -1.3598  1.5268 -0.7979
17191SOL    HW253015   6.321   7.108   0.491 -1.1060  1.7701  0.0908
17192SOL     OW53016   3.049   7.869   1.022 -0.2420  0.1411  0.0326
17192SOL    HW153017   3.049   7.957   1.059 -2.5861 -0.0969  0.7421
17192SOL    HW253018   2.957   7.848   1.009  0.1229 -2.7734  1.2976
17193SOL     OW53019   6.858   7.634  11.834 -0.0529  0.0162 -0.1133
17193SOL    HW153020   6.793   7.578  11.792  0.5845 -0.6014 -0.2964
17193SOL    HW253021   6.901   7.680  11.762  1.3737 -1.4031 -0.2221
17194SOL     OW53022   4.480   5.891   1.939 -0.1070  0.1842 -0.4236
17194SOL    HW153023   4.388   5.888   1.914 -0.1151 -1.2028 -0.2703
17194SOL    HW253024   4.527   5.901   1.856 -0.2880 -1.5884 -0.7822
17195SOL     OW53025   4.462   6.698   0.501  0.3277  0.1560  0.0095
17195SOL    HW153026   4.457   6.657   0.415  1.2161  0.6003 -0.2638
17195SOL    HW253027   4.523   6.644   0.551 -0.0887 -0.0285  0.3246
17196SOL     OW53028   5.007   7.572   0.007 -0.2649  0.2545  0.7170
17196SOL    HW153029   5.070   7.615  -0.051 -0.7997 -0.8030 -0.7201
17196SOL    HW253030   5.032   7.599   0.095  1.1740  1.1591  0.0558
17197SOL     OW53031   3.529   6.921   2.374 -0.7969 -0.3885 -0.2055
17197SOL    HW153032   3.560   6.926   2.283  0.4127  1.3526  0.2406
17197SOL    HW253033   3.603   6.884   2.422  0.0630  2.1317  0.5906
17198SOL     OW53034   2.584   6.631  12.492  0.0213 -0.4165 -0.2445
17198SOL    HW153035   2.523   6.558  12.503 -0.6328  0.2633  0.6905
17198SOL    HW253036   2.550   6.679  12.417  0.3396 -0.9467 -0.7384
17199SOL     OW53037   4.220   0.097   3.049  0.2662  0.4056 -0.1782
17199SOL    HW153038   4.148   0.092   2.986 -0.4311 -1.6701  0.6799
17199SOL    HW253039   4.299   0.087   2.996 -0.2213  0.1330 -0.8686
17200SOL     OW53040   4.285   7.145   2.294  0.0542  0.3070 -0.0158
17200SOL    HW153041   4.298   7.119   2.203  0.2542  0.2959  0.0158
17200SOL    HW253042   4.197   7.183   2.296  0.1496  0.5436 -0.2679
17201SOL     OW53043   4.997   1.389   3.793 -0.0830 -0.2201  0.5618
17201SOL    HW153044   5.057   1.443   3.845 -0.4066  0.6422  0.0654
17201SOL    HW253045   5.028   1.399   3.703 -0.6323 -0.2125  0.3670
17202SOL     OW53046   5.420   1.447   0.337 -0.1019  0.1313  0.3082
17202SOL    HW153047   5.451   1.519   0.392  1.8889 -1.9088  2.0720
17202SOL    HW253048   5.384   1.384   0.399  0.0142 -1.2312 -0.9613
17203SOL     OW53049   4.463   0.875   2.884 -0.2399 -0.1200  0.6000
17203SOL    HW153050   4.408   0.823   2.943 -0.7763 -1.5263 -1.0468
17203SOL    HW253051   4.548   0.831   2.884 -1.6157 -3.4409 -3.4568
17204SOL     OW53052   5.801   7.729   0.118  0.0144  0.4481 -0.3125
17204SOL    HW153053   5.715   7.751   0.083  0.2487 -0.1090 -1.2735
17204SOL    HW253054   5.796   7.753   0.211 -1.1178  0.5619 -0.3890
17205SOL     OW53055   6.151   6.958   1.103  0.2569  0.1209 -0.1878
17205SOL    HW153056   6.062   6.988   1.123  0.2581 -0.7431  1.2401
17205SOL    HW253057   6.142   6.909   1.021 -0.5197  0.3827 -0.2632
17206SOL     OW53058   4.154   7.023  12.062  0.1254 -0.4386  0.1386
17206SOL    HW153059   4.215   6.955  12.031  1.2409 -0.1394  1.5767
17206SOL    HW253060   4.132   7.072  11.983 -0.6668 -2.3975 -0.9383
17207SOL     OW53061   4.772   0.096   1.721 -0.1750 -0.7331  0.5555
17207SOL    HW153062   4.735   0.173   1.766  2.4321  0.6706  0.4848
17207SOL    HW253063   4.785   0.032   1.791  0.2328 -0.0283  1.1463
17208SOL     OW53064   6.393   7.482  12.419  0.3162 -0.3316 -0.1061
17208SOL    HW153065   6.303   7.449  12.417  0.4938 -0.9395  1.0999
17208SOL    HW253066   6.388   7.567  12.376 -1.1949  0.4557  1.5021
17209SOL     OW53067   6.792   0.460   2.815 -0.2053 -0.3507 -0.0600
17209SOL    HW153068   6.809   0.541   2.767  0.9563 -1.1701 -1.1128
17209SOL    HW253069   6.710   0.476   2.862 -0.7642  0.9161 -1.3939
17210SOL     OW53070   3.198   7.425   0.203  0.1210  0.1778 -0.0117
17210SOL    HW153071   3.189   7.332   0.223  0.4792 -0.0771 -0.9527
17210SOL    HW253072   3.285   7.433   0.164 -0.1464  0.7962 -0.4966
17211SOL     OW53073   4.433   0.076   2.881 -0.2591 -1.1153 -0.3956
17211SOL    HW153074   4.501   0.009   2.870  0.7351 -0.3839  0.8501
17211SOL    HW253075   4.458   0.145   2.820  1.2386 -0.0527  1.3263
17212SOL     OW53076   6.182   0.180   2.718 -0.2522 -0.6369  0.6065
17212SOL    HW153077   6.237   0.251   2.750  0.2112 -0.9866  0.5902
17212SOL    HW253078   6.169   0.200   2.625  0.9015 -1.2150  0.3000
17213SOL     OW53079   4.470   7.204  12.269 -0.2536  0.2208 -0.1093
17213SOL    HW153080   4.383   7.177  12.295  0.0376  1.3041  2.2157
17213SOL    HW253081   4.456   7.263  12.194 -1.2734 -1.5153 -1.3481
17214SOL     OW53082   5.565   7.329  12.254  0.2787 -0.3390  0.5510
17214SOL    HW153083   5.528   7.323  12.166  3.2964 -1.2168 -0.7925
17214SOL    HW253084   5.594   7.420  12.262 -1.7348  0.2784  1.5020
17215SOL     OW53085   4.088   6.695  11.297 -0.2106  0.5123  0.0704
17215SOL    HW153086   4.030   6.748  11.242  0.4892  0.8321 -0.3758
17215SOL    HW253087   4.174   6.703  11.255  0.3973  0.9887  1.3551
17216SOL     OW53088   3.246   0.064  12.304 -0.1929 -0.2163 -0.2127
17216SOL    HW153089   3.314   0.005  12.338  0.6393 -1.0482 -3.0340
17216SOL    HW253090   3.184   0.006  12.260 -1.2808  0.7776 -0.0208
17217SOL     OW53091   3.828   0.880   1.700 -0.8629 -0.1620  0.4369
17217SOL    HW153092   3.745   0.899   1.657  0.6682 -0.9527 -3.2288
17217SOL    HW253093   3.845   0.788   1.680  1.6079  0.3897 -0.3564
17218SOL     OW53094   4.072   6.868   0.286 -0.5012 -0.3949  0.0604
17218SOL    HW153095   4.148   6.859   0.229 -0.7016  0.5703 -0.3673
17218SOL    HW253096   4.051   6.778   0.312  0.9102 -0.6554  0.3628
17219SOL     OW53097   4.725   6.959  12.020  0.2315  0.1812 -0.5442
17219SOL    HW153098   4.680   7.013  11.955 -2.3909 -1.5037 -0.2856
17219SOL    HW253099   4.735   6.874  11.977  0.2801 -0.3907  0.5634
17220SOL     OW53100   4.288   7.820   1.188  0.4030 -0.8700  0.0756
17220SOL    HW153101   4.323   7.868   1.263 -0.6845 -1.4397  0.9837
17220SOL    HW253102   4.350   7.748   1.173  2.1108  0.7882 -1.3689
17221SOL     OW53103   4.926   0.172   1.180  0.8561 -0.2605  0.1686
17221SOL    HW153104   4.927   0.081   1.210  1.1118 -0.0676  0.7622
17221SOL    HW253105   4.878   0.219   1.248 -0.5171 -0.1644 -0.8229
17222SOL     OW53106   5.975   1.084   1.349 -0.2050 -0.2062  0.5916
17222SOL    HW153107   5.919   1.006   1.346 -0.5924  0.0860 -0.5299
17222SOL    HW253108   6.063   1.050   1.363 -0.4487 -0.8087  0.6974
17223SOL     OW53109   3.213   7.111   2.968 -0.0241 -0.0571 -0.0025
17223SOL    HW153110   3.226   7.146   2.879  1.7503 -0.3655  0.0945
17223SOL    HW253111   3.199   7.188   3.022  1.5279  0.3816 -0.1677
17224SOL     OW53112   6.003   7.642   0.423  0.0728  0.1354  0.0173
17224SOL    HW153113   6.020   7.702   0.495  2.0302 -1.1018  0.6922
17224SOL    HW253114   5.915   7.608   0.440  0.0298  0.7719  1.1537
17225SOL     OW53115   5.698   0.085   0.913 -0.7060  0.2370 -0.5919
17225SOL    HW153116   5.692   0.174   0.948  1.3332  0.6233 -1.1041
17225SOL    HW253117   5.653   0.031   0.978  0.0953  1.3482  0.9641
17226SOL     OW53118   3.719   1.283   1.736  0.2444  0.6061 -0.2182
17226SOL    HW153119   3.627   1.287   1.708  0.5838 -0.3063 -1.5868
17226SOL    HW253120   3.725   1.203   1.787  0.6785 -0.5261 -1.9346
17227SOL     OW53121   5.162   7.996   2.074  0.2311  0.1539  0.1301
17227SOL    HW153122   5.256   8.011   2.062 -0.0706  1.3753 -1.0037
17227SOL    HW253123   5.122   8.082   2.058 -1.1269 -0.4902 -0.0585
17228SOL     OW53124   4.319   0.778   1.470  0.1144 -0.1871 -0.1949
17228SOL    HW153125   4.349   0.745   1.385  2.5697 -0.9374  0.8907
17228SOL    HW253126   4.224   0.790   1.458  0.3159 -0.6080 -2.9023
17229SOL     OW53127   3.689   7.541   0.169  0.5506 -0.1833 -0.0597
17229SOL    HW153128   3.784   7.544   0.153  0.4585 -1.2634 -0.8884
17229SOL    HW253129   3.661   7.632   0.162  1.3359 -0.0023 -1.0643
17230SOL     OW53130   2.833   6.556   0.042  0.3981  0.3819 -0.1904
17230SOL    HW153131   2.871   6.545  -0.045  0.0365 -0.9871 -0.1966
17230SOL    HW253132   2.742   6.580   0.026  0.5362  0.9163 -0.1830
17231SOL     OW53133   4.168   7.854   2.331 -0.4067 -0.0814 -0.4448
17231SOL    HW153134   4.088   7.870   2.380  0.0148 -1.7704  0.8865
17231SOL    HW253135   4.139   7.817   2.248 -1.0296 -0.2106 -0.1717
17232SOL     OW53136   4.047   0.757   1.390  0.0685 -0.6015 -0.2747
17232SOL    HW153137   4.082   0.672   1.415  1.5889  0.1703  0.3268
17232SOL    HW253138   3.954   0.752   1.412  0.4703 -1.5174  1.3454
17233SOL     OW53139   4.314   0.980   1.052  0.0742 -0.3962  0.2856
17233SOL    HW153140   4.282   0.976   0.962  0.0738 -0.3283  0.2821
17233SOL    HW253141   4.235   0.994   1.105 -0.7193 -5.1770  0.8302
17234SOL     OW53142   3.696   7.335   1.175  0.5856  0.6091 -0.8692
17234SOL    HW153143   3.603   7.329   1.199  0.9172 -0.7732  0.2100
17234SOL    HW253144   3.743   7.321   1.258  1.7594 -1.0899 -1.7649
17235SOL     OW53145   5.036   0.457   0.919 -0.1910 -0.3812 -0.0169
17235SOL    HW153146   4.983   0.527   0.956  0.1713  0.3148 -0.7661
17235SOL    HW253147   5.092   0.501   0.855 -1.4010 -1.6089 -2.0411
17236SOL     OW53148   6.629   7.249   1.580  0.1434 -0.0442  0.2349
17236SOL    HW153149   6.651   7.333   1.621  0.3018 -0.0049  0.0721
17236SOL    HW253150   6.646   7.184   1.647  0.8946 -0.0286  0.0639
17237SOL     OW53151   6.035   7.503  11.823  0.0630  0.3312  0.4794
17237SOL    HW153152   6.099   7.434  11.838  1.1155 -0.0556 -4.0938
17237SOL    HW253153   6.087   7.582  11.806 -0.8474  0.9010  0.2460
17238SOL     OW53154   4.208   0.311   2.081 -0.5878 -0.3275 -0.5670
17238SOL    HW153155   4.279   0.249   2.099 -0.1876  0.5579  1.0748
17238SOL    HW253156   4.246   0.373   2.019 -0.9154 -1.5108 -2.0353
17239SOL     OW53157   5.727   7.528   1.272 -0.2430  0.0936 -0.1947
17239SOL    HW153158   5.684   7.558   1.192  1.5559  1.4595 -0.7333
17239SOL    HW253159   5.668   7.555   1.343 -0.3891  1.7727 -0.9030
17240SOL     OW53160   5.627   0.083  11.962  0.4917  0.1536 -0.6679
17240SOL    HW153161   5.578   0.146  12.015  0.2498 -0.9951  0.5245
17240SOL    HW253162   5.697   0.053  12.020  1.1408 -0.0163 -1.5291
17241SOL     OW53163   4.571   7.172  10.989  0.0727 -0.1267  0.3260
17241SOL    HW153164   4.664   7.188  10.975 -0.1928  0.7958 -0.6104
17241SOL    HW253165   4.547   7.111  10.920  0.2232 -1.3556  1.3371
17242SOL     OW53166   3.987   1.184   1.890  0.2425  0.3521 -0.1082
17242SOL    HW153167   4.061   1.244   1.893  0.7494 -0.1549 -1.5095
17242SOL    HW253168   3.951   1.194   1.802  0.9857 -2.0703 -0.7767
17243SOL     OW53169   5.444   0.017   0.198 -0.7370 -0.2031  0.6386
17243SOL    HW153170   5.488  -0.011   0.278 -0.7264 -0.3744  0.5733
17243SOL    HW253171   5.389  -0.057   0.173 -0.5773 -0.2350  0.3725
17244SOL     OW53172   7.638   2.052   1.133  0.1340  0.6463  0.2849
17244SOL    HW153173   7.629   1.957   1.141 -2.8021  0.5996 -1.7016
17244SOL    HW253174   7.693   2.078   1.206 -0.1003 -2.4411  1.6986
17245SOL     OW53175   5.195   7.983   1.248  0.1565 -0.0738 -0.4177
17245SOL    HW153176   5.146   7.904   1.225 -1.0575  0.6198 -0.3020
17245SOL    HW253177   5.222   8.020   1.164 -1.4944  0.7389 -0.6245
17246SOL     OW53178   3.644   7.525  11.712 -0.3953 -0.3234  0.1134
17246SOL    HW153179   3.563   7.482  11.736 -0.4779 -0.2265  0.0103
17246SOL    HW253180   3.651   7.513  11.617 -0.4805 -0.0097  0.0656
17247SOL     OW53181   5.037   7.765   2.129  0.1864  0.6519  0.6745
17247SOL    HW153182   5.078   7.851   2.119  0.6699  0.5840  1.8449
17247SOL    HW253183   5.111   7.704   2.127 -0.1547  0.2505 -0.1691
17248SOL     OW53184   3.323   0.745   0.989  0.0795  0.3441 -1.1396
17248SOL    HW153185   3.367   0.774   0.910  0.3728  1.0744 -0.7184
17248SOL    HW253186   3.322   0.649   0.982  1.6687  0.2944 -1.2128
17249SOL     OW53187   3.491   0.247   0.464  0.3196 -0.1036 -0.4074
17249SOL    HW153188   3.430   0.262   0.537  0.5056  2.2648 -0.6541
17249SOL    HW253189   3.440   0.268   0.386  1.2451  1.3766 -0.6478
17250SOL     OW53190   6.814   7.975   0.559  0.5390  0.2991 -0.0496
17250SOL    HW153191   6.858   8.027   0.627 -1.4187  0.7534  0.9518
17250SOL    HW253192   6.739   7.936   0.604  0.3867 -1.1421 -1.4689
17251SOL     OW53193   7.027   7.698  11.175 -0.1010  0.7322 -0.1338
17251SOL    HW153194   7.055   7.782  11.211 -0.5351  0.5337  0.7149
17251SOL    HW253195   7.000   7.648  11.252  0.0262 -0.1373 -0.6437
17252SOL     OW53196   4.925   7.258   0.981 -0.0786 -0.1623  0.0753
17252SOL    HW153197   4.853   7.312   0.949  0.6416  0.5648 -0.3610
17252SOL    HW253198   4.912   7.173   0.939 -1.4806 -0.4835  1.1204
17253SOL     OW53199   5.379   0.596   2.623 -0.1305  0.0689  0.7039
17253SOL    HW153200   5.369   0.539   2.699  0.1806  0.3170  0.9348
17253SOL    HW253201   5.297   0.646   2.619  0.0400  0.3898  1.1586
17254SOL     OW53202   3.770   1.167   2.653  0.2928  0.6289  0.3389
17254SOL    HW153203   3.720   1.220   2.591 -1.0893  1.6025  2.1734
17254SOL    HW253204   3.858   1.204   2.651  0.1574  0.9249 -0.6979
17255SOL     OW53205   5.494   7.535   0.246  0.5076 -0.1462 -0.4191
17255SOL    HW153206   5.460   7.615   0.207 -0.4960  0.8806  2.2964
17255SOL    HW253207   5.453   7.465   0.196 -1.1597  1.0656 -0.8356
17256SOL     OW53208   4.406   0.381   0.742  0.0522  0.7171 -0.4530
17256SOL    HW153209   4.434   0.398   0.652 -0.1594  1.7407 -0.3383
17256SOL    HW253210   4.486   0.352   0.787  0.1817  0.3083 -0.9356
17257SOL     OW53211   4.455   0.001   1.597  0.0638 -0.3391  0.0189
17257SOL    HW153212   4.518   0.067   1.626  0.3602 -0.5866 -0.0525
17257SOL    HW253213   4.404  -0.019   1.675  0.0065 -0.0620  0.0533
17258SOL     OW53214   4.188   7.741   3.477  0.7702  0.4294  0.0824
17258SOL    HW153215   4.161   7.786   3.397  0.3262 -0.5885 -0.3484
17258SOL    HW253216   4.255   7.799   3.515 -1.5111  2.7230  0.8717
17259SOL     OW53217   4.159   1.378   1.468 -0.2691  0.6528 -0.2634
17259SOL    HW153218   4.235   1.359   1.413 -0.3319 -0.4747  0.0100
17259SOL    HW253219   4.090   1.320   1.435 -0.5229  0.4923  0.5247
17260SOL     OW53220   5.592   0.670   1.726 -1.1151 -0.3704  0.2147
17260SOL    HW153221   5.499   0.676   1.748 -1.0304 -0.8979  0.7435
17260SOL    HW253222   5.618   0.584   1.759 -0.5012 -0.3287 -0.1655
17261SOL     OW53223   4.155   6.416   4.990 -0.1977 -0.8716  0.1092
17261SOL    HW153224   4.081   6.383   5.040  0.5952  0.5772  2.3907
17261SOL    HW253225   4.133   6.507   4.971 -0.3398 -1.2864 -2.0324
17262SOL     OW53226   7.044   7.983   2.665 -0.7182  0.0098 -0.1076
17262SOL    HW153227   7.086   7.972   2.580 -1.0112  1.5437 -0.4776
17262SOL    HW253228   7.102   8.042   2.713 -2.1509  1.7777 -0.4559
17263SOL     OW53229   7.079   0.195   4.047  0.5017  0.2473  0.4577
17263SOL    HW153230   7.112   0.258   4.111  0.2073  0.5307  0.3298
17263SOL    HW253231   7.038   0.248   3.979 -1.0456 -0.1188  1.0678
17264SOL     OW53232   2.233   7.700   0.536 -0.5179 -0.5081 -0.4939
17264SOL    HW153233   2.283   7.735   0.463  1.1718  1.8578  1.6274
17264SOL    HW253234   2.256   7.607   0.539  2.6312  0.1469 -0.5976
17265SOL     OW53235   5.877   7.392   3.086 -0.7264  0.4551  0.2393
17265SOL    HW153236   5.880   7.297   3.081 -1.8802  0.4379 -0.9380
17265SOL    HW253237   5.940   7.416   3.154 -1.5401 -1.2325  1.6580
17266SOL     OW53238   2.554   7.398   2.842  0.4019 -0.4041 -0.1357
17266SOL    HW153239   2.549   7.422   2.934  0.7339  1.9291 -0.6803
17266SOL    HW253240   2.470   7.357   2.823 -0.7962  1.6102  0.5654
17267SOL     OW53241   4.104   0.292   3.455 -0.3017 -0.4295  0.9372
17267SOL    HW153242   4.072   0.226   3.393 -0.2516 -0.9360  1.4381
17267SOL    HW253243   4.098   0.249   3.540 -0.5751  0.3376  1.3120
17268SOL     OW53244   6.571   7.625   2.270 -0.2439 -0.0105  0.5692
17268SOL    HW153245   6.476   7.634   2.269 -0.2461  0.1549  1.4511
17268SOL    HW253246   6.597   7.654   2.358  0.5912 -0.3221  0.4338
17269SOL     OW53247   5.611   0.245   3.781 -0.6900 -0.2272 -0.0730
17269SOL    HW153248   5.557   0.227   3.703 -1.9095  1.3550  0.3563
17269SOL    HW253249   5.701   0.245   3.749 -1.1686  0.3440 -1.4853
17270SOL     OW53250   5.319   7.714   3.007 -0.0353 -0.2305 -0.1723
17270SOL    HW153251   5.356   7.737   2.921 -1.3980 -2.6093 -1.4777
17270SOL    HW253252   5.393   7.678   3.056  0.4550 -0.2306 -0.8937
17271SOL     OW53253   4.299   1.331   2.483 -0.0639 -0.2590  0.6634
17271SOL    HW153254   4.317   1.373   2.566  1.6780  0.3002  0.0549
17271SOL    HW253255   4.316   1.399   2.417  0.4001 -1.1940 -0.2143
17272SOL     OW53256   6.008   0.073   1.785 -0.2739  0.2861 -0.0703
17272SOL    HW153257   6.004   0.168   1.797  0.3246  0.2947  0.0894
17272SOL    HW253258   5.948   0.038   1.850  0.7999  0.4735  1.0522
17273SOL     OW53259   4.748   2.892   3.848  0.3299  0.1070 -0.4135
17273SOL    HW153260   4.781   2.804   3.836 -0.6376 -0.3410  0.0779
17273SOL    HW253261   4.803   2.929   3.917 -0.3858 -0.7613  0.6700
17274SOL     OW53262   5.325   7.605   4.973  0.1118  0.5007  0.4283
17274SOL    HW153263   5.318   7.532   5.035 -1.5988 -0.0020 -0.2855
17274SOL    HW253264   5.292   7.569   4.890 -1.0269  2.1224  0.1261
17275SOL     OW53265   7.290   0.497   2.853  0.1433 -0.4723 -0.1430
17275SOL    HW153266   7.274   0.590   2.864 -0.0220 -0.7299  2.2300
17275SOL    HW253267   7.317   0.466   2.939  0.7901 -2.5196 -1.0125
17276SOL     OW53268   5.113   2.853   4.172  0.8350 -0.0035 -0.4209
17276SOL    HW153269   5.084   2.940   4.200  1.8962  0.4187 -0.5606
17276SOL    HW253270   5.042   2.794   4.197  0.3353  0.8310  0.1685
17277SOL     OW53271   4.597   7.245   2.353 -0.3257 -0.1139  0.3399
17277SOL    HW153272   4.626   7.212   2.268  0.9958  1.1148  0.2668
17277SOL    HW253273   4.501   7.247   2.347 -0.2545 -0.0518 -1.1245
17278SOL     OW53274   4.236   7.697   3.801 -0.4600  0.4231  0.2806
17278SOL    HW153275   4.300   7.701   3.872 -1.6144 -0.2873  1.4205
17278SOL    HW253276   4.277   7.640   3.736  0.9889  1.7943 -0.0563
17279SOL     OW53277   5.324   0.503   2.945  0.1039  0.0785  0.4104
17279SOL    HW153278   5.343   0.426   2.891  1.7768  0.3314  0.5714
17279SOL    HW253279   5.229   0.513   2.940  0.1658  0.1734 -2.6090
17280SOL     OW53280   5.124   7.105   2.077  0.5516 -0.3770 -0.2994
17280SOL    HW153281   5.187   7.175   2.095 -1.0710  1.1980 -0.5082
17280SOL    HW253282   5.177   7.025   2.078  2.4043  0.7850  0.3291
17281SOL     OW53283   1.864   7.015   2.316 -0.1151  0.3764  0.6734
17281SOL    HW153284   1.926   6.978   2.379 -0.2368  0.2925  0.7467
17281SOL    HW253285   1.811   6.940   2.289 -0.6638  0.5768  1.1677
17282SOL     OW53286   4.519   7.259   2.711 -0.1665  0.2742 -0.1141
17282SOL    HW153287   4.487   7.341   2.749 -0.5067 -0.2869  0.8396
17282SOL    HW253288   4.446   7.228   2.658 -1.0016 -0.6330  1.4805
17283SOL     OW53289   3.615   0.369   3.821 -0.4430 -0.4679 -0.0264
17283SOL    HW153290   3.700   0.326   3.829  0.0445  0.5098  0.2551
17283SOL    HW253291   3.585   0.378   3.911 -0.0758  0.6375  0.0066
17284SOL     OW53292   5.879   6.684   4.477 -0.2108  0.4934 -0.4228
17284SOL    HW153293   5.837   6.678   4.391  1.1797 -0.5520 -1.0759
17284SOL    HW253294   5.807   6.698   4.538 -1.7064 -2.2546 -1.3671
17285SOL     OW53295   3.354   6.254   2.526  0.1054 -0.1763  0.3248
17285SOL    HW153296   3.322   6.322   2.467 -0.4258 -0.9416 -0.3004
17285SOL    HW253297   3.319   6.278   2.612  1.0512  1.0605  0.3863
17286SOL     OW53298   4.931   1.800   4.506  0.1343 -0.3351  0.3765
17286SOL    HW153299   4.939   1.874   4.567 -0.0385 -0.9940  1.2162
17286SOL    HW253300   4.836   1.792   4.492  0.2405  0.9435 -1.4235
17287SOL     OW53301   5.137   0.772   1.612  0.5226  0.2302 -0.9353
17287SOL    HW153302   5.140   0.778   1.517  1.1531  0.9677 -0.8846
17287SOL    HW253303   5.053   0.810   1.637  0.5641  0.4735 -1.1706
17288SOL     OW53304   7.405   7.552   3.908  0.2419 -0.0154  0.1039
17288SOL    HW153305   7.381   7.481   3.849 -1.3628 -1.2470  2.1069
17288SOL    HW253306   7.380   7.520   3.995 -0.1061  2.8339  1.1351
17289SOL     OW53307   4.312   7.749   3.121 -0.0902 -0.4195 -0.2281
17289SOL    HW153308   4.258   7.760   3.199  1.3150  0.3528  0.6733
17289SOL    HW253309   4.393   7.796   3.141  0.7348 -1.1389 -1.7225
17290SOL     OW53310   5.053   7.644   3.056 -0.7481 -0.5660  0.0656
17290SOL    HW153311   5.045   7.548   3.059  2.3793 -0.8989  2.1708
17290SOL    HW253312   5.144   7.659   3.029 -0.7755  1.7779  1.0763
17291SOL     OW53313   4.169   6.792   3.734  0.6384  0.7356  0.0389
17291SOL    HW153314   4.246   6.834   3.695  0.9710 -0.2883 -0.4432
17291SOL    HW253315   4.095   6.843   3.703  1.1477  2.0603  0.9290
17292SOL     OW53316   4.972   0.650   5.377  0.6075  0.0791  0.1254
17292SOL    HW153317   4.888   0.683   5.409 -1.4782 -3.0077 -1.7110
17292SOL    HW253318   4.977   0.560   5.409  1.5934 -0.8982 -2.5013
17293SOL     OW53319   4.957   7.449   3.396  0.1172  0.0326  0.2040
17293SOL    HW153320   4.981   7.358   3.408 -0.5597  0.0728  2.1244
17293SOL    HW253321   4.874   7.446   3.347 -0.7040 -0.4635  1.5920
17294SOL     OW53322   5.554   7.869   2.234  0.3196  0.5161 -0.5188
17294SOL    HW153323   5.555   7.914   2.149 -1.5151 -0.1869 -0.9717
17294SOL    HW253324   5.622   7.803   2.227  0.3079  0.5878 -1.3926
17295SOL     OW53325   4.766   0.722   3.646  0.3399 -0.6528 -0.7312
17295SOL    HW153326   4.776   0.808   3.607  0.4561 -1.3777 -2.3664
17295SOL    HW253327   4.681   0.691   3.617 -0.0672 -0.7796  0.5232
17296SOL     OW53328   7.108   1.328   2.859  0.3563  0.1461 -0.1135
17296SOL    HW153329   7.155   1.337   2.941  0.0159  2.5543 -0.0983
17296SOL    HW253330   7.020   1.301   2.884  0.7652 -0.9850  0.1364
17297SOL     OW53331   5.636   7.777   2.972 -0.1227 -0.3989 -0.3143
17297SOL    HW153332   5.649   7.758   3.065 -0.4697  3.3590  0.6581
17297SOL    HW253333   5.723   7.767   2.934  0.5664  0.4371  0.9611
17298SOL     OW53334   7.281   7.227   2.685 -0.6309  0.4758  0.6382
17298SOL    HW153335   7.224   7.155   2.658  0.4415  0.0129 -0.4601
17298SOL    HW253336   7.282   7.287   2.611  0.7230  0.1978  0.3915
17299SOL     OW53337   4.923   0.362   3.237  0.3202 -0.8140  0.1049
17299SOL    HW153338   4.883   0.419   3.303 -0.6601  0.8562 -1.8405
17299SOL    HW253339   4.977   0.301   3.288  1.1684  1.6222  2.3393
17300SOL     OW53340   5.656   7.694   1.046 -0.0265 -0.0511 -0.3712
17300SOL    HW153341   5.571   7.652   1.033 -0.0784  0.0578 -0.3895
17300SOL    HW253342   5.636   7.788   1.050 -0.0185 -0.0817  0.5502
17301SOL     OW53343   4.147   0.897   2.076  0.1148 -0.6848 -0.3426
17301SOL    HW153344   4.170   0.960   2.008  0.5931 -0.8941 -0.3737
17301SOL    HW253345   4.058   0.869   2.054 -0.3009  0.3632 -0.0333
17302SOL     OW53346   5.233   6.626   3.071  0.5976  0.3651  0.2679
17302SOL    HW153347   5.273   6.695   3.018  0.0690 -0.1780 -0.8561
17302SOL    HW253348   5.169   6.585   3.014 -1.0244  0.6855  1.7904
17303SOL     OW53349   5.094   7.313   1.212 -0.4830  0.1540  0.0963
17303SOL    HW153350   5.056   7.275   1.133 -2.7460  0.1164  1.1257
17303SOL    HW253351   5.071   7.252   1.282 -0.8174  1.4727  1.1898
17304SOL     OW53352   5.598   0.358   2.652 -0.4346  0.1938  0.0809
17304SOL    HW153353   5.515   0.354   2.700  0.7146  1.2917  2.3197
17304SOL    HW253354   5.614   0.268   2.624 -2.0658 -0.1527  0.1425
17305SOL     OW53355   5.674   0.216   3.348 -0.2410 -0.6939  0.8519
17305SOL    HW153356   5.594   0.166   3.329 -0.3768 -0.9527  2.0371
17305SOL    HW253357   5.714   0.171   3.422  0.6019 -0.1005  0.7783
17306SOL     OW53358   6.452   0.781   4.358  0.4791  0.0508 -0.5064
17306SOL    HW153359   6.472   0.688   4.361  1.6886  0.2932 -0.2486
17306SOL    HW253360   6.386   0.790   4.290 -0.1676 -1.0694 -0.0592
17307SOL     OW53361   5.114   2.292   3.361 -0.3108 -0.1435 -0.6205
17307SOL    HW153362   5.126   2.328   3.273  1.9090  0.8763  0.0207
17307SOL    HW253363   5.200   2.300   3.402 -1.1964 -0.9077  1.5465
17308SOL     OW53364   4.963   7.903   2.424  0.6279 -0.2297  0.1051
17308SOL    HW153365   5.009   7.975   2.380  0.4852  0.2238  0.6914
17308SOL    HW253366   4.919   7.944   2.498  2.4806 -1.3042  1.8923
17309SOL     OW53367   4.797   5.932   0.832 -0.0867 -0.4828  0.2794
17309SOL    HW153368   4.829   6.000   0.891 -1.1815 -0.2326  0.6199
17309SOL    HW253369   4.702   5.930   0.847  0.0551 -3.1914  1.4660
17310SOL     OW53370   5.911   0.045   4.350 -0.2478 -0.2911  0.4165
17310SOL    HW153371   5.834   0.046   4.406 -0.2335  1.0841  0.4428
17310SOL    HW253372   5.983   0.021   4.408 -0.5336 -0.9037  0.5313
17311SOL     OW53373   6.033   7.477   2.165  0.1740 -0.0453  0.0708
17311SOL    HW153374   6.054   7.499   2.074  0.5650  1.2270  0.4417
17311SOL    HW253375   6.021   7.382   2.165  4.0688 -0.6839 -0.5798
17312SOL     OW53376   3.666   1.357   2.423 -0.4868 -0.1198 -0.3092
17312SOL    HW153377   3.593   1.377   2.482 -0.8608  0.5345 -0.9772
17312SOL    HW253378   3.671   1.432   2.364  0.7404 -0.1479 -0.2740
17313SOL     OW53379   3.742   0.152   1.182 -0.4974  0.0209 -0.1244
17313SOL    HW153380   3.677   0.219   1.157  0.3134  1.2993  1.0319
17313SOL    HW253381   3.691   0.072   1.192 -1.5795  0.5514 -1.1422
17314SOL     OW53382   5.788   0.056   2.386 -0.7810  0.2690  0.0447
17314SOL    HW153383   5.818   0.113   2.315  0.7830  1.0617  1.2732
17314SOL    HW253384   5.811  -0.032   2.357  1.1298  0.6956  0.0936
17315SOL     OW53385   4.537   7.868   3.812  0.6214 -0.4791  0.0416
17315SOL    HW153386   4.492   7.813   3.876 -1.2282  0.2871 -0.5556
17315SOL    HW253387   4.626   7.875   3.847  0.4711 -2.4539  0.9881
17316SOL     OW53388   5.421   6.287   3.119  0.2740 -0.2360  0.3446
17316SOL    HW153389   5.375   6.243   3.190 -0.4796 -0.4590 -0.2664
17316SOL    HW253390   5.375   6.259   3.039  0.7142  0.4905 -0.1816
17317SOL     OW53391   4.001   7.343   1.985  0.1148  0.0790  0.1133
17317SOL    HW153392   3.982   7.255   2.019  1.1003 -0.5647 -0.9391
17317SOL    HW253393   4.088   7.335   1.946 -0.3854  1.1545 -1.2841
17318SOL     OW53394   5.884   0.814   1.611 -0.3367 -0.6306  0.1097
17318SOL    HW153395   5.948   0.743   1.611 -0.5712 -0.8523  0.6649
17318SOL    HW253396   5.867   0.832   1.519 -1.3758 -2.3010 -0.0649
17319SOL     OW53397   4.641   1.479   1.725 -0.3125  0.4473  0.1593
17319SOL    HW153398   4.575   1.498   1.792 -0.5919  0.7295 -0.1895
17319SOL    HW253399   4.651   1.384   1.727 -0.3393  0.4502  0.5800
17320SOL     OW53400   7.097   0.430   3.632  0.0240  0.3143 -0.0110
17320SOL    HW153401   7.050   0.483   3.567 -0.5862 -1.6239 -1.2134
17320SOL    HW253402   7.028   0.395   3.688  0.2229 -0.7753 -0.4367
17321SOL     OW53403   5.013   6.566   2.119 -0.1225 -0.5566 -0.6465
17321SOL    HW153404   5.013   6.567   2.215  0.2763 -0.3104 -0.6465
17321SOL    HW253405   5.062   6.645   2.095  0.2145 -0.8882 -1.0469
17322SOL     OW53406   6.537   0.031   1.643  0.3233  0.3698 -0.0213
17322SOL    HW153407   6.453  -0.015   1.649  1.3368 -1.4852  0.7929
17322SOL    HW253408   6.597  -0.034   1.606  1.4109  1.6555 -0.5828
17323SOL     OW53409   3.938   2.442   3.239  0.0910  0.2480  0.8112
17323SOL    HW153410   3.927   2.348   3.255  0.5251  0.4442  2.4881
17323SOL    HW253411   4.032   2.456   3.248 -0.0845  0.9931  1.5465
17324SOL     OW53412   4.866   0.847   1.626  0.3672  0.6801  0.4799
17324SOL    HW153413   4.846   0.940   1.611 -0.3731  0.2887 -1.2101
17324SOL    HW253414   4.797   0.800   1.578  2.1079 -0.7320 -0.7349
17325SOL     OW53415   4.500   0.832   5.040 -0.5932  0.4016  0.3567
17325SOL    HW153416   4.449   0.818   4.960  0.1408 -0.1130 -0.0402
17325SOL    HW253417   4.491   0.751   5.090 -1.4747  0.9167  1.0557
17326SOL     OW53418   3.473   0.062   5.073  0.3149  0.4950  0.0319
17326SOL    HW153419   3.513   0.126   5.014  0.1676 -0.1231 -0.7429
17326SOL    HW253420   3.415   0.115   5.129 -0.4691  0.9423 -1.1630
17327SOL     OW53421   4.122   0.536   3.535 -0.4987 -0.0599 -0.2285
17327SOL    HW153422   4.050   0.537   3.599  0.2117 -0.1760  0.5928
17327SOL    HW253423   4.125   0.446   3.504 -1.0127  0.0562 -0.6213
17328SOL     OW53424   5.027   1.004   4.109 -0.6587  0.1837  0.1233
17328SOL    HW153425   5.020   0.943   4.183  0.3674 -0.4026 -0.2327
17328SOL    HW253426   5.099   1.062   4.133  0.1853 -0.4764 -0.7040
17329SOL     OW53427   6.360   7.575   5.194 -0.3155  0.7667 -0.0101
17329SOL    HW153428   6.417   7.638   5.149  1.0976  0.5752  1.4302
17329SOL    HW253429   6.398   7.490   5.173 -0.4985  0.5864  0.3883
17330SOL     OW53430   5.684   7.775   5.181 -0.2808 -0.1066 -0.3509
17330SOL    HW153431   5.693   7.699   5.238  0.7109  1.4530  1.7404
17330SOL    HW253432   5.766   7.779   5.132 -0.2066 -0.2087 -0.2339
17331SOL     OW53433   6.150   2.503   5.116  0.1279 -0.2280 -0.6246
17331SOL    HW153434   6.093   2.546   5.179  2.4687  1.2307  0.6114
17331SOL    HW253435   6.208   2.448   5.168  0.3445 -1.1708 -1.7911
17332SOL     OW53436   3.531   0.876   5.495  0.0892  0.4328  0.0451
17332SOL    HW153437   3.599   0.892   5.560 -0.9993 -0.6380  1.5255
17332SOL    HW253438   3.453   0.917   5.532 -0.2358  1.0981 -1.3245
17333SOL     OW53439   2.867   0.123   6.218  0.0066 -0.7694  0.1279
17333SOL    HW153440   2.889   0.032   6.237  2.4197 -0.0444  1.1251
17333SOL    HW253441   2.801   0.146   6.284  0.4676 -1.3832  0.8229
17334SOL     OW53442   5.473   7.003   4.020  0.2897  0.1574  0.1279
17334SOL    HW153443   5.387   7.030   3.988 -0.0644 -0.6419  0.3835
17334SOL    HW253444   5.489   6.919   3.978  2.3780  1.6859 -2.4452
17335SOL     OW53445   5.695   0.179   4.458  0.0297  0.6947 -0.1320
17335SOL    HW153446   5.631   0.110   4.475 -0.4083  0.8760 -0.9917
17335SOL    HW253447   5.646   0.247   4.413  0.4834  1.5382  0.6345
17336SOL     OW53448   4.704   2.812   4.987 -0.7377 -0.0909  0.1326
17336SOL    HW153449   4.781   2.773   5.029 -1.0308 -1.1974 -0.3085
17336SOL    HW253450   4.705   2.904   5.014 -0.1257 -0.4453  1.3816
17337SOL     OW53451   5.639   1.101   5.349  0.1732  0.6139 -0.1534
17337SOL    HW153452   5.608   1.056   5.428  3.0691  2.5589  2.3211
17337SOL    HW253453   5.708   1.045   5.314  2.3089  1.8782  1.7133
17338SOL     OW53454   4.437   6.686   4.690 -0.2275  0.2870  0.2575
17338SOL    HW153455   4.527   6.718   4.695 -0.6182  1.4571  0.1858
17338SOL    HW253456   4.385   6.755   4.731 -0.9940 -0.8662  1.2791
17339SOL     OW53457   4.836   1.704   6.054 -0.4760  0.1895 -0.3995
17339SOL    HW153458   4.823   1.676   6.145  2.5291  0.1080  0.0919
17339SOL    HW253459   4.840   1.799   6.059  0.7227  0.1445 -0.2466
17340SOL     OW53460   6.260   7.946   5.361  0.5415  0.5285 -0.0380
17340SOL    HW153461   6.244   7.935   5.454 -0.1253  0.9527 -0.0979
17340SOL    HW253462   6.354   7.929   5.351  0.4158 -0.5812  0.5373
17341SOL     OW53463   4.249   6.883   5.860  0.8358 -0.6919  0.1052
17341SOL    HW153464   4.240   6.870   5.766 -0.2258 -1.7506  0.3318
17341SOL    HW253465   4.186   6.823   5.899  1.1201 -0.1344  1.4945
17342SOL     OW53466   4.938   0.534   2.637 -0.0062  0.4012  0.3576
17342SOL    HW153467   5.007   0.597   2.616  0.0106  0.7149  1.2962
17342SOL    HW253468   4.904   0.507   2.552  0.4008  1.2157 -0.0834
17343SOL     OW53469   4.602   6.878   5.834 -0.1818 -0.1870  0.2390
17343SOL    HW153470   4.549   6.809   5.794 -0.4211 -0.5873  1.1980
17343SOL    HW253471   4.567   6.886   5.923  1.0335 -0.1122  0.7347
17344SOL     OW53472   5.881   7.530   4.681  0.1199 -0.2490 -0.2552
17344SOL    HW153473   5.798   7.564   4.712  0.2926  0.1388 -0.2221
17344SOL    HW253474   5.861   7.440   4.654 -0.4597  0.0600 -0.8833
17345SOL     OW53475   4.941   7.493   7.696  0.5635  0.5982  0.4981
17345SOL    HW153476   4.865   7.544   7.667 -0.3624 -0.7817  0.4139
17345SOL    HW253477   4.945   7.419   7.635  0.7625 -0.4209  1.7107
17346SOL     OW53478   5.195   0.202   5.362 -0.3941 -0.3779 -0.1478
17346SOL    HW153479   5.130   0.254   5.410  0.1662 -1.2372  1.6568
17346SOL    HW253480   5.144   0.156   5.295 -1.5341 -0.4060  0.6979
17347SOL     OW53481   4.209   7.977   5.723 -0.0328 -0.3053 -0.6708
17347SOL    HW153482   4.160   7.929   5.789  1.2588  1.0981  1.4113
17347SOL    HW253483   4.200   8.069   5.747  1.7357  0.1477 -1.5251
17348SOL     OW53484   3.631   1.045   3.847 -0.1648  0.4213  0.2923
17348SOL    HW153485   3.654   1.125   3.894  2.3890  0.1564 -0.3554
17348SOL    HW253486   3.595   1.077   3.764 -1.0521  0.8754  0.8365
17349SOL     OW53487   6.105   0.378   4.793  0.1873  0.2292  0.3057
17349SOL    HW153488   6.056   0.334   4.724 -0.0984  0.5927  0.2777
17349SOL    HW253489   6.127   0.309   4.856 -0.6429  0.1257  0.4849
17350SOL     OW53490   3.360   0.162   5.298  0.1128 -0.1002  0.1342
17350SOL    HW153491   3.322   0.085   5.339  0.9334 -0.8884 -0.5513
17350SOL    HW253492   3.333   0.235   5.354 -0.0901 -0.9630  1.1849
17351SOL     OW53493   5.674   0.141   4.907  0.1893  0.6905 -0.2965
17351SOL    HW153494   5.689   0.233   4.885  1.7960  0.4054 -0.5257
17351SOL    HW253495   5.741   0.120   4.972 -1.2609  0.1174  1.0784
17352SOL     OW53496   4.061   0.249   4.032  0.2572  0.3011  0.0755
17352SOL    HW153497   4.102   0.335   4.032  0.2048  0.3680  1.7469
17352SOL    HW253498   4.113   0.198   4.095 -0.7457 -0.3513  0.4044
17353SOL     OW53499   7.205   1.626   6.193  0.6334 -0.2226 -0.4873
17353SOL    HW153500   7.180   1.534   6.186 -2.9377  0.1272  3.4613
17353SOL    HW253501   7.266   1.628   6.267  2.0781  0.4743 -1.6567
17354SOL     OW53502   5.589   7.478   3.802 -0.3553 -0.2085 -0.4079
17354SOL    HW153503   5.641   7.453   3.726  0.9538  0.6272  0.1885
17354SOL    HW253504   5.606   7.571   3.814 -0.2969 -0.3854  1.0889
17355SOL     OW53505   3.017   6.426   6.999  0.1221  0.0426  0.0478
17355SOL    HW153506   2.949   6.360   6.985 -0.4256  0.4522  0.6681
17355SOL    HW253507   3.073   6.420   6.922 -0.5365 -0.4087 -0.4121
17356SOL     OW53508   7.075   0.816   4.958 -0.0062 -0.4515  0.2432
17356SOL    HW153509   6.993   0.768   4.942  0.1615 -0.6185 -0.1267
17356SOL    HW253510   7.100   0.850   4.872 -0.0922  0.2596  0.4937
17357SOL     OW53511   4.050   7.476   6.274 -0.3000 -0.2902  0.1064
17357SOL    HW153512   4.062   7.437   6.188 -1.5385  0.1163 -0.2659
17357SOL    HW253513   3.971   7.434   6.309 -0.0898 -0.0968  0.8456
17358SOL     OW53514   4.418   7.108   4.976  0.0134 -0.0186 -0.4643
17358SOL    HW153515   4.409   7.132   5.069 -0.5117  1.0278 -0.7638
17358SOL    HW253516   4.482   7.170   4.941  0.4137 -0.5844 -0.7530
17359SOL     OW53517   3.721   6.218   6.531 -0.5445 -0.0161  0.5069
17359SOL    HW153518   3.726   6.127   6.561  1.6554 -0.3370 -0.5684
17359SOL    HW253519   3.808   6.254   6.549 -1.2868  1.8088  0.6525
17360SOL     OW53520   3.152   0.049   6.001  0.1353  0.0258  0.6558
17360SOL    HW153521   3.110   0.123   6.045 -1.5412 -0.2381 -0.4168
17360SOL    HW253522   3.100  -0.027   6.026 -0.1652 -0.2883 -0.8559
17361SOL     OW53523   3.436   0.406   4.339  0.4354  0.2178  0.1552
17361SOL    HW153524   3.378   0.460   4.285  1.5040  0.5797 -0.6859
17361SOL    HW253525   3.522   0.414   4.296  1.0461 -0.5112  1.2003
17362SOL     OW53526   4.919   6.128   3.855 -0.0006 -0.0940 -0.6965
17362SOL    HW153527   4.891   6.173   3.775  3.3967  3.0273 -0.3877
17362SOL    HW253528   5.004   6.090   3.833  0.7918  0.4274  1.2342
17363SOL     OW53529   5.736   7.667   3.234 -0.0538 -0.1562 -0.3062
17363SOL    HW153530   5.749   7.581   3.195  0.2732 -0.5440  0.6395
17363SOL    HW253531   5.809   7.720   3.201  0.5812 -0.6578  0.2598
17364SOL     OW53532   4.863   7.971   2.663 -0.1957  1.0478  0.1599
17364SOL    HW153533   4.773   7.948   2.642 -0.0130  1.4797 -1.2247
17364SOL    HW253534   4.858   8.017   2.747 -1.3489  1.7334 -0.2675
17365SOL     OW53535   4.345   1.530   2.945  0.3714 -0.4891  0.0867
17365SOL    HW153536   4.414   1.494   3.000  0.2618 -0.9902 -0.0992
17365SOL    HW253537   4.352   1.625   2.956 -0.9556 -0.5907  2.5793
17366SOL     OW53538   3.764   0.122   4.915 -0.5761  0.4052 -0.4705
17366SOL    HW153539   3.728   0.059   4.852 -0.3644 -1.4285  1.1367
17366SOL    HW253540   3.858   0.105   4.915 -0.7730 -1.1637  1.8009
17367SOL     OW53541   6.466   0.364   5.960  0.4647  0.3653  0.4416
17367SOL    HW153542   6.383   0.316   5.957  0.0176  1.0335 -4.0373
17367SOL    HW253543   6.442   0.454   5.936  2.4955  0.4068 -1.7317
17368SOL     OW53544   3.418   7.153   7.555 -0.6983  0.3704  0.2216
17368SOL    HW153545   3.464   7.082   7.600  0.6235  0.9415 -0.1923
17368SOL    HW253546   3.383   7.207   7.626  0.9628  1.0036  0.6029
17369SOL     OW53547   3.219   1.255   6.917  0.0324  0.2825  0.3509
17369SOL    HW153548   3.232   1.188   6.850  0.6528  0.4985  0.2561
17369SOL    HW253549   3.154   1.217   6.976  0.4976 -0.4733  0.3866
17370SOL     OW53550   5.067   7.215   6.215  0.4307 -0.3608  0.0429
17370SOL    HW153551   4.989   7.233   6.267  0.3022  0.1769 -0.3294
17370SOL    HW253552   5.107   7.139   6.257 -1.0832 -1.5777 -0.6274
17371SOL     OW53553   4.076   7.462   5.493 -0.3795  0.2229 -0.0721
17371SOL    HW153554   4.061   7.546   5.450  2.7905  0.2870 -1.3324
17371SOL    HW253555   4.115   7.407   5.425 -0.5284 -1.5990  1.2629
17372SOL     OW53556   0.089   7.880   3.212  0.3662  0.4040 -0.5871
17372SOL    HW153557   0.053   7.805   3.260  0.6408  0.3901 -0.4036
17372SOL    HW253558   0.088   7.952   3.275  2.8892 -0.1649  0.2120
17373SOL     OW53559   5.584   7.515   5.557 -0.1834 -0.3250  0.2047
17373SOL    HW153560   5.488   7.513   5.552 -0.1955 -0.4203  0.4382
17373SOL    HW253561   5.612   7.552   5.473 -0.5019  1.4560  0.8309
17374SOL     OW53562   5.463   7.392   6.062 -0.1562  0.0819  0.1409
17374SOL    HW153563   5.433   7.399   5.972  2.0337 -0.4642 -0.6855
17374SOL    HW253564   5.530   7.460   6.071  1.4998 -1.5233  0.5003
17375SOL     OW53565   5.216   0.332   5.094  0.7667  0.3204 -0.1650
17375SOL    HW153566   5.121   0.325   5.084  0.5389  2.3608  0.2132
17375SOL    HW253567   5.241   0.254   5.145 -0.4834 -0.9330 -1.3765
17376SOL     OW53568   3.737   0.378   5.349  0.3891  0.1960  0.3309
17376SOL    HW153569   3.785   0.404   5.427  0.1935 -0.2746  0.6098
17376SOL    HW253570   3.796   0.316   5.304  0.1182 -0.2526  0.5874
17377SOL     OW53571   4.732   0.392   5.896 -0.3618 -0.0896  0.0491
17377SOL    HW153572   4.675   0.466   5.879  0.9533  1.1134  0.6530
17377SOL    HW253573   4.796   0.394   5.824 -1.1507 -1.5460 -0.7449
17378SOL     OW53574   7.767   0.094   4.665  0.0772 -0.6041 -0.4744
17378SOL    HW153575   7.767   0.065   4.756  1.1982 -2.7342 -1.0584
17378SOL    HW253576   7.858   0.081   4.636 -0.4101 -0.7081 -2.0788
17379SOL     OW53577   3.800   0.087   4.512  0.2910 -0.0816  0.4249
17379SOL    HW153578   3.773   0.043   4.432 -1.9789  2.0511 -0.0874
17379SOL    HW253579   3.727   0.073   4.573 -0.5649  2.8741  0.2174
17380SOL     OW53580   4.537   7.582   2.334  0.4528 -0.2253 -0.1848
17380SOL    HW153581   4.454   7.543   2.309  0.1841 -1.0278  1.7740
17380SOL    HW253582   4.513   7.667   2.371  0.3795 -0.7620  1.0626
17381SOL     OW53583   5.674   6.704   4.236 -0.1473  0.3465  0.3842
17381SOL    HW153584   5.618   6.667   4.168  0.3962  1.5420 -0.7729
17381SOL    HW253585   5.618   6.708   4.314 -0.4513 -2.0827  0.3595
17382SOL     OW53586   3.792   6.650   7.059  0.0837  0.8366 -0.0550
17382SOL    HW153587   3.707   6.626   7.096  0.2233  0.2279 -0.1249
17382SOL    HW253588   3.856   6.612   7.119  0.3199  1.9728  0.4455
17383SOL     OW53589   5.685   7.746   3.856  0.1618 -0.4474 -0.6533
17383SOL    HW153590   5.630   7.801   3.911 -0.0855 -0.0389 -1.2943
17383SOL    HW253591   5.758   7.722   3.912 -0.7916 -1.2306  0.3111
17384SOL     OW53592   4.680   6.944   3.862  0.2792  0.3075  0.3593
17384SOL    HW153593   4.672   6.849   3.868  3.3963 -0.1545 -0.6619
17384SOL    HW253594   4.684   6.961   3.768 -2.2273  1.7700  0.4366
17385SOL     OW53595   6.161   0.584   5.824 -0.2621  0.7640  0.1758
17385SOL    HW153596   6.221   0.653   5.852 -0.4683  1.2709 -0.6182
17385SOL    HW253597   6.198   0.551   5.742 -0.5647  0.4398  0.1667
17386SOL     OW53598   5.921   7.763   5.029 -0.7106 -0.0784 -0.1637
17386SOL    HW153599   5.956   7.705   4.961 -1.2194  0.9448 -1.3502
17386SOL    HW253600   5.993   7.823   5.049 -0.8543  0.2174 -0.5121
17387SOL     OW53601   3.673   1.422   4.314  0.2690  0.1369 -0.1811
17387SOL    HW153602   3.607   1.373   4.265  0.5214 -0.7183  0.3064
17387SOL    HW253603   3.626   1.457   4.389  0.5345 -1.2394  0.6581
17388SOL     OW53604   4.647   0.254   5.534 -0.5475 -0.0723  0.0939
17388SOL    HW153605   4.731   0.290   5.505 -1.5794  0.9532 -1.7475
17388SOL    HW253606   4.671   0.174   5.581  1.5148  0.7638  0.5847
17389SOL     OW53607   5.513   0.367   5.425 -0.3541 -0.5977 -0.2487
17389SOL    HW153608   5.424   0.382   5.456 -0.3951 -1.1481 -0.0905
17389SOL    HW253609   5.502   0.314   5.346 -0.1514 -1.0560  0.0257
17390SOL     OW53610   4.996   7.789   3.303  0.1413 -0.5417 -0.5981
17390SOL    HW153611   5.008   7.719   3.367 -1.4339 -0.5654 -0.3038
17390SOL    HW253612   5.012   7.747   3.218  1.3780 -0.7070 -0.3112
17391SOL     OW53613   4.152   0.425   6.213  0.1220  0.2208 -0.3772
17391SOL    HW153614   4.202   0.454   6.289 -0.1217 -1.5608  0.5060
17391SOL    HW253615   4.215   0.426   6.141  0.9613 -0.2879  0.3405
17392SOL     OW53616   4.145   7.712   5.366 -0.0425 -0.5083 -0.2580
17392SOL    HW153617   4.066   7.758   5.339 -0.8057 -1.7898 -0.3109
17392SOL    HW253618   4.215   7.752   5.315 -1.1299 -1.4507 -2.6410
17393SOL     OW53619   3.253   6.525   8.240  0.1174 -0.0682 -0.3998
17393SOL    HW153620   3.210   6.496   8.320 -0.5615 -1.2116 -1.1635
17393SOL    HW253621   3.346   6.531   8.264 -0.2818  1.4686  0.9872
17394SOL     OW53622   3.820   7.903   6.927 -0.0241 -0.0864 -0.7487
17394SOL    HW153623   3.858   7.991   6.929 -1.8762  0.7466  0.8259
17394SOL    HW253624   3.786   7.894   6.837 -1.9048  1.8217 -0.3335
17395SOL     OW53625   6.713   7.942   4.284  0.0088 -0.1957 -0.4968
17395SOL    HW153626   6.789   7.910   4.333 -1.6116 -1.2247  1.4754
17395SOL    HW253627   6.750   7.975   4.202  2.4724 -1.4568  0.0146
17396SOL     OW53628   4.849   7.772   5.551  0.5503  0.0315  0.4955
17396SOL    HW153629   4.776   7.834   5.552  1.5805  1.3161 -0.3287
17396SOL    HW253630   4.810   7.688   5.576 -1.6198  0.2026 -1.9509
17397SOL     OW53631   4.438   6.439   5.885 -0.2500  0.6864  0.1394
17397SOL    HW153632   4.409   6.395   5.965 -0.9747  1.8364  0.5382
17397SOL    HW253633   4.476   6.370   5.831 -1.5912 -0.4702  0.6273
17398SOL     OW53634   2.489   7.126   6.131 -0.0463  0.0184 -0.1724
17398SOL    HW153635   2.550   7.137   6.058 -0.9383  0.4210 -0.8833
17398SOL    HW253636   2.403   7.140   6.092 -0.5032  0.9639  1.1000
17399SOL     OW53637   1.874   5.403   6.344  0.0602 -0.4326  0.4555
17399SOL    HW153638   1.812   5.454   6.292 -0.3721 -1.2852  0.1295
17399SOL    HW253639   1.957   5.449   6.333  0.0087 -0.6681 -1.0905
17400SOL     OW53640   4.431   6.297   6.087  0.7075 -0.2410 -0.6915
17400SOL    HW153641   4.480   6.216   6.073 -0.5280 -0.9777 -0.9399
17400SOL    HW253642   4.419   6.302   6.182 -0.5176 -1.1719 -0.7815
17401SOL     OW53643   5.501   5.530   7.657 -0.8170  0.0038 -0.0585
17401SOL    HW153644   5.489   5.552   7.749  0.6846 -0.3364  0.2530
17401SOL    HW253645   5.560   5.597   7.624 -1.5837  0.2916 -0.8635
17402SOL     OW53646   4.982   6.846   5.672 -0.0674 -0.4882 -0.1120
17402SOL    HW153647   4.966   6.844   5.766  0.1565  1.2320 -0.0029
17402SOL    HW253648   5.076   6.829   5.663  0.0053 -0.1516  0.0119
17403SOL     OW53649   5.954   0.256   7.802  0.8726 -0.4448  0.0813
17403SOL    HW153650   6.032   0.204   7.822  0.9832 -0.8287 -1.2690
17403SOL    HW253651   5.921   0.283   7.888  2.0590 -0.9020  0.7094
17404SOL     OW53652   5.638   1.913   9.270  0.3612  0.4536 -0.6543
17404SOL    HW153653   5.576   1.981   9.297  1.1610  1.1933 -0.6263
17404SOL    HW253654   5.623   1.904   9.176 -0.5245 -0.1532 -0.4701
17405SOL     OW53655   5.886   7.639   6.334 -0.4199  0.1789 -0.0212
17405SOL    HW153656   5.938   7.705   6.378 -1.5571  2.2121 -1.5044
17405SOL    HW253657   5.925   7.556   6.359  2.0217  1.4654  0.7736
17406SOL     OW53658   5.714   7.027   5.961 -0.5510  0.5500  0.0619
17406SOL    HW153659   5.777   7.056   6.026 -0.5910 -0.0775  0.3840
17406SOL    HW253660   5.655   7.101   5.950  1.3607  1.9204 -1.6933
17407SOL     OW53661   5.751   0.850   6.339 -0.9388  0.6013 -0.1099
17407SOL    HW153662   5.724   0.883   6.424 -3.1808 -2.7161  0.6580
17407SOL    HW253663   5.839   0.816   6.353 -0.5321  1.7501  0.2990
17408SOL     OW53664   4.982   0.515   6.431  0.1008  0.6604  0.0692
17408SOL    HW153665   5.070   0.479   6.418  0.4044  0.8504  1.4928
17408SOL    HW253666   4.996   0.600   6.472 -0.7483  0.5590  0.5924
17409SOL     OW53667   2.577   7.296   7.057 -0.2158  0.1095 -0.0205
17409SOL    HW153668   2.504   7.316   7.116 -0.9342 -0.7903 -0.5681
17409SOL    HW253669   2.581   7.200   7.057  0.6615  0.1432 -0.3740
17410SOL     OW53670   4.993   6.644   5.499  0.0099  0.0116 -0.1338
17410SOL    HW153671   4.977   6.703   5.573  1.3429  1.8624 -1.2250
17410SOL    HW253672   5.022   6.702   5.428 -3.1815 -1.3647 -2.8646
17411SOL     OW53673   5.626   7.530   7.010 -1.0059 -0.1166 -0.3539
17411SOL    HW153674   5.590   7.441   7.007  0.2291 -0.6756  0.4619
17411SOL    HW253675   5.598   7.570   6.928 -2.3036 -0.9561 -0.3614
17412SOL     OW53676   3.824   6.695   6.650 -0.3270  0.5095 -0.2407
17412SOL    HW153677   3.814   6.773   6.705  3.1192  0.7037  0.3777
17412SOL    HW253678   3.843   6.729   6.563 -0.2128  0.3658 -0.2730
17413SOL     OW53679   4.567   0.235   6.596 -0.5192  0.1688 -0.0635
17413SOL    HW153680   4.627   0.160   6.595  0.0150  0.5881  0.0524
17413SOL    HW253681   4.620   0.309   6.566 -1.2098  0.3873 -0.7684
17414SOL     OW53682   4.774   7.105   7.004 -0.3000 -0.1350 -0.9461
17414SOL    HW153683   4.867   7.080   7.011 -0.2450 -0.0359 -1.3341
17414SOL    HW253684   4.727   7.031   7.043  0.0496  1.0666  2.0988
17415SOL     OW53685   3.890   6.606   6.333 -0.0763 -0.3262  0.4309
17415SOL    HW153686   3.900   6.685   6.280  0.9793 -1.0059 -0.4397
17415SOL    HW253687   3.796   6.588   6.332 -0.1974  0.2696 -0.3356
17416SOL     OW53688   5.897   6.631   7.253  0.1709 -0.1993 -0.1725
17416SOL    HW153689   5.969   6.597   7.199  1.2473  1.3296  0.2012
17416SOL    HW253690   5.939   6.698   7.308 -1.7738  1.8116 -0.9651
17417SOL     OW53691   3.638   7.958   7.588  0.0763  0.4016  0.3075
17417SOL    HW153692   3.643   8.051   7.568  0.0055  0.7746  1.8939
17417SOL    HW253693   3.643   7.953   7.684 -2.2408 -1.0400  0.4476
17418SOL     OW53694   4.028   5.675   7.048  0.2245  0.1093 -0.0540
17418SOL    HW153695   4.072   5.751   7.086 -1.6882  0.2370  2.1753
17418SOL    HW253696   4.094   5.606   7.046  1.0240  0.7983  1.4331
17419SOL     OW53697   4.485   5.539   5.978  0.1015  0.6264  0.3019
17419SOL    HW153698   4.488   5.471   6.045  0.5564  2.3030  2.0630
17419SOL    HW253699   4.574   5.541   5.942 -0.2499 -0.5611 -0.7156
17420SOL     OW53700   4.753   0.552   8.344  0.8213 -0.1723 -0.5183
17420SOL    HW153701   4.790   0.641   8.344  1.9834 -0.6282 -1.9941
17420SOL    HW253702   4.815   0.500   8.396  0.5932 -0.3031 -0.3758
17421SOL     OW53703   4.284   0.050   7.487 -0.3182  0.6390  0.1328
17421SOL    HW153704   4.285   0.008   7.573  1.5180  1.9468  0.8086
17421SOL    HW253705   4.279  -0.023   7.425 -2.9400 -0.2929  1.2889
17422SOL     OW53706   5.023   6.998   7.015 -0.1090 -0.4835  0.2493
17422SOL    HW153707   5.002   6.905   7.010 -0.0597 -0.4976  0.3076
17422SOL    HW253708   5.107   7.006   6.970  0.4183 -0.6338  1.1766
17423SOL     OW53709   6.280   0.050   7.092 -0.1795  0.7294 -0.1240
17423SOL    HW153710   6.241  -0.027   7.133  0.6058  0.9170  1.0347
17423SOL    HW253711   6.219   0.122   7.114 -0.6711  0.5349 -0.8126
17424SOL     OW53712   4.582   0.820   8.878 -0.3028  0.3470  0.2769
17424SOL    HW153713   4.515   0.882   8.848 -0.8163 -0.7706 -1.0125
17424SOL    HW253714   4.620   0.785   8.797 -0.2585 -1.2423  0.9518
17425SOL     OW53715   3.020   0.132   7.388  0.0845  0.7086  0.2881
17425SOL    HW153716   3.099   0.127   7.442  0.8700 -2.4754 -0.9075
17425SOL    HW253717   2.952   0.161   7.449  1.5848  0.6832  2.0871
17426SOL     OW53718   4.410   0.483   7.144 -0.0099  0.4193  0.6320
17426SOL    HW153719   4.338   0.421   7.157 -0.9690  1.6521  1.3935
17426SOL    HW253720   4.477   0.456   7.207  0.5878 -1.2220 -0.6203
17427SOL     OW53721   2.176   6.800   7.075  0.3996  0.2455 -0.8496
17427SOL    HW153722   2.095   6.788   7.025 -0.0198 -0.1519 -0.0949
17427SOL    HW253723   2.236   6.734   7.040 -0.4220 -1.1236  0.2423
17428SOL     OW53724   4.231   7.629   6.946 -0.1681  0.2927 -0.5414
17428SOL    HW153725   4.170   7.692   6.908 -0.9001  0.3279  0.6476
17428SOL    HW253726   4.191   7.604   7.030 -1.0055 -3.3836 -1.8523
17429SOL     OW53727   4.788   7.655   6.828  0.3954  0.4032 -0.2872
17429SOL    HW153728   4.802   7.626   6.918  1.8204  3.0649  0.4507
17429SOL    HW253729   4.695   7.644   6.813 -0.0407  0.7740  1.8844
17430SOL     OW53730   4.880   7.214   6.413 -0.2860 -0.1920  0.5967
17430SOL    HW153731   4.892   7.143   6.476 -1.2771  0.4252  1.5140
17430SOL    HW253732   4.788   7.240   6.423 -0.9148 -1.0272 -2.1378
17431SOL     OW53733   4.816   0.754   5.970 -0.4934  0.1127 -0.0010
17431SOL    HW153734   4.837   0.847   5.977 -0.9050  0.4423 -2.2878
17431SOL    HW253735   4.893   0.715   5.929 -0.4866 -0.5009  0.5671
17432SOL     OW53736   5.848   0.951   5.214  0.0388  0.4089  0.1237
17432SOL    HW153737   5.881   1.014   5.149  0.9922  1.2764  1.3793
17432SOL    HW253738   5.878   0.866   5.182  2.3853  1.0313  0.4883
17433SOL     OW53739   3.674   1.683   8.055 -0.7518  0.0327 -0.4431
17433SOL    HW153740   3.639   1.765   8.020 -0.5015  0.9686  1.3627
17433SOL    HW253741   3.721   1.709   8.134  0.1131 -1.7595 -0.3086
17434SOL     OW53742   3.151   7.261   6.250  0.1401 -0.1083 -0.1414
17434SOL    HW153743   3.201   7.338   6.222 -1.3340  0.3128 -1.7922
17434SOL    HW253744   3.166   7.256   6.344  1.8732  1.0022 -0.3107
17435SOL     OW53745   5.216   1.699   7.864  0.1725 -1.1681 -0.2245
17435SOL    HW153746   5.178   1.611   7.865  0.1150 -1.1425  0.7395
17435SOL    HW253747   5.141   1.758   7.851  0.1925 -1.2503 -0.7217
17436SOL     OW53748   3.006   7.391   7.334 -0.2380  0.0675 -0.5866
17436SOL    HW153749   2.917   7.425   7.346 -0.8829 -1.5412 -0.4992
17436SOL    HW253750   3.035   7.369   7.423  0.0513  0.1319 -0.6664
17437SOL     OW53751   2.565   6.547   8.431 -0.4010  0.0609  0.0330
17437SOL    HW153752   2.520   6.520   8.352 -0.0707  1.5162 -0.6876
17437SOL    HW253753   2.496   6.580   8.488 -0.7544 -1.8135  0.7586
17438SOL     OW53754   6.250   1.043   6.260 -0.4625 -0.1125  0.4326
17438SOL    HW153755   6.340   1.021   6.236 -0.8949 -1.0361 -0.4075
17438SOL    HW253756   6.237   1.004   6.346  0.7849  2.3788  1.8738
17439SOL     OW53757   5.094   0.991   7.521 -0.6068  0.4952 -0.4106
17439SOL    HW153758   5.132   1.079   7.523  0.1246  0.2107 -1.1026
17439SOL    HW253759   5.025   0.996   7.455 -0.7224  0.6113 -0.2809
17440SOL     OW53760   3.269   0.133   7.181  0.3501 -0.2554 -0.1488
17440SOL    HW153761   3.177   0.128   7.209  0.8739 -0.0946  1.7292
17440SOL    HW253762   3.311   0.190   7.245  1.6959  0.0433 -1.2415
17441SOL     OW53763   7.433   7.561   5.446 -0.1449 -0.0498  0.1482
17441SOL    HW153764   7.432   7.481   5.498 -4.7565 -0.6822 -0.4745
17441SOL    HW253765   7.391   7.626   5.502 -1.3761  0.3787 -1.2058
17442SOL     OW53766   5.517   0.263   6.833  0.0677  0.0238 -0.5081
17442SOL    HW153767   5.434   0.251   6.786 -0.0217  0.0962 -0.3718
17442SOL    HW253768   5.584   0.237   6.771 -0.0422  0.2271 -0.7160
17443SOL     OW53769   3.616   7.818   6.667 -0.0081 -0.5684 -0.6533
17443SOL    HW153770   3.628   7.910   6.642 -0.9622 -0.6334 -1.3967
17443SOL    HW253771   3.521   7.808   6.676  0.0654 -1.5745 -0.9229
17444SOL     OW53772   5.963   6.598   7.888 -0.3142 -0.3444  0.3232
17444SOL    HW153773   5.890   6.651   7.856  0.0650  0.1296  0.2275
17444SOL    HW253774   5.933   6.563   7.972 -0.6498 -0.1491  0.2865
17445SOL     OW53775   3.880   7.788   6.503 -0.0544 -1.0050  0.3648
17445SOL    HW153776   3.824   7.796   6.581  1.0790 -0.0370  1.1028
17445SOL    HW253777   3.899   7.694   6.497  1.8087 -0.8639  2.7174
17446SOL     OW53778   4.697   0.261   7.873 -0.2107  0.4147  0.4121
17446SOL    HW153779   4.659   0.276   7.786  1.0876 -1.0911 -0.4722
17446SOL    HW253780   4.650   0.321   7.930 -0.9957  1.5711 -1.3547
17447SOL     OW53781   3.652   1.268   7.164 -0.0560 -0.1595 -0.3448
17447SOL    HW153782   3.610   1.240   7.245 -2.0594 -0.0764 -1.2858
17447SOL    HW253783   3.632   1.198   7.102  1.4221 -0.2086 -0.8053
17448SOL     OW53784   3.658   5.950   4.711 -0.2757  0.0702 -0.2404
17448SOL    HW153785   3.745   5.915   4.732 -0.1583  1.5030  1.9506
17448SOL    HW253786   3.601   5.917   4.781 -0.9750  1.0693 -0.3207
17449SOL     OW53787   4.379   0.099   7.861  0.7582  0.5082  0.2116
17449SOL    HW153788   4.305   0.157   7.882 -1.3359 -1.4497 -1.2713
17449SOL    HW253789   4.432   0.150   7.799 -0.3995  1.2844 -0.1742
17450SOL     OW53790   4.268   7.507   4.455 -0.1556  0.0313 -0.0652
17450SOL    HW153791   4.308   7.567   4.517  1.3730 -1.2011  0.2028
17450SOL    HW253792   4.267   7.422   4.500 -3.8293  0.0726  0.2470
17451SOL     OW53793   4.947   0.486   6.090  0.1199  0.3599 -0.9826
17451SOL    HW153794   4.959   0.486   5.995  1.6510  1.3579 -0.8119
17451SOL    HW253795   4.875   0.547   6.105 -1.6644 -1.4448 -1.6082
17452SOL     OW53796   4.401   7.395   7.805 -0.6701 -0.0359  0.0965
17452SOL    HW153797   4.338   7.363   7.740  0.8596  0.2550 -1.5912
17452SOL    HW253798   4.351   7.458   7.857 -2.4856 -1.7373  0.5639
17453SOL     OW53799   5.368   0.446   7.129  0.4999  0.3261 -0.2490
17453SOL    HW153800   5.330   0.478   7.211  1.6085 -0.3458  0.5520
17453SOL    HW253801   5.388   0.354   7.146  1.8785  0.4885 -0.8379
17454SOL     OW53802   5.101   7.961   6.404 -0.7167 -0.5735 -0.5538
17454SOL    HW153803   5.006   7.959   6.390 -1.0709 -0.1130  1.4640
17454SOL    HW253804   5.134   7.885   6.357 -2.1144 -0.8739 -1.0926
17455SOL     OW53805   5.597   0.105   5.762 -0.4672 -0.0432 -0.1579
17455SOL    HW153806   5.621   0.184   5.714 -2.1926  0.5895 -0.0670
17455SOL    HW253807   5.504   0.093   5.744 -1.1972  0.1542  2.8754
17456SOL     OW53808   4.899   6.437   7.740 -0.6301  0.4131  0.5559
17456SOL    HW153809   4.879   6.350   7.704 -0.2247  0.2690  0.6717
17456SOL    HW253810   4.844   6.497   7.690  0.1937  0.2637 -0.5658
17457SOL     OW53811   5.192   1.380   6.065 -0.1939 -0.3803  0.8441
17457SOL    HW153812   5.281   1.393   6.101  0.3596  1.3265 -0.9656
17457SOL    HW253813   5.199   1.301   6.011  0.2039 -0.3051  0.7821
17458SOL     OW53814   5.358   0.182   4.176 -0.2486  0.1018 -0.2531
17458SOL    HW153815   5.285   0.206   4.233 -3.8066 -1.9160 -3.5203
17458SOL    HW253816   5.362   0.086   4.181  1.6007  0.1002 -0.9007
17459SOL     OW53817   5.241   0.788   7.153  0.8107  0.0450  0.3845
17459SOL    HW153818   5.317   0.846   7.157  1.4362 -0.4967 -1.9953
17459SOL    HW253819   5.254   0.727   7.226  2.5532  0.1097  0.1874
17460SOL     OW53820   3.190   6.952   6.732 -0.3472 -0.6843  0.1478
17460SOL    HW153821   3.252   7.020   6.707  1.1231 -2.2178 -0.6309
17460SOL    HW253822   3.160   6.977   6.819  1.2094  0.2344  0.4573
17461SOL     OW53823   3.379   0.998   7.825  0.3851 -0.3931  0.0946
17461SOL    HW153824   3.457   1.047   7.801 -0.9449  2.1699  0.5402
17461SOL    HW253825   3.313   1.024   7.760 -0.7000 -0.6330  1.0469
17462SOL     OW53826   4.726   7.374   6.897  0.1964 -0.6583 -0.7451
17462SOL    HW153827   4.741   7.297   6.952  1.8445  0.6564  0.7853
17462SOL    HW253828   4.780   7.443   6.937 -1.8846  1.5603 -1.5069
17463SOL     OW53829   4.946   6.290   8.041 -0.0395  0.1860  0.1576
17463SOL    HW153830   4.965   6.250   7.956 -0.8502  1.5368 -0.6790
17463SOL    HW253831   4.979   6.226   8.105  0.3985 -0.9429 -1.1507
17464SOL     OW53832   3.922   0.450   7.079 -0.0451  0.2740 -0.0513
17464SOL    HW153833   3.853   0.489   7.132 -0.9894  0.2681 -1.2604
17464SOL    HW253834   4.001   0.458   7.134 -0.6032  1.9999  0.5684
17465SOL     OW53835   6.453   7.067   7.561 -0.0174  0.3607 -0.0876
17465SOL    HW153836   6.484   7.064   7.651  0.9452  0.4089 -0.4106
17465SOL    HW253837   6.518   7.018   7.511 -1.1385 -0.6694 -0.6031
17466SOL     OW53838   4.090   7.873   7.630  0.7522 -0.1580 -0.1866
17466SOL    HW153839   4.064   7.961   7.657  1.1064 -0.2455  0.4394
17466SOL    HW253840   4.027   7.850   7.561 -0.8943 -0.3860  1.3293
17467SOL     OW53841   4.999   7.555   8.410  0.7578 -0.2709  0.2958
17467SOL    HW153842   5.091   7.582   8.406  0.7749 -0.4044 -0.3230
17467SOL    HW253843   4.995   7.493   8.482  0.7171  1.3772  1.7649
17468SOL     OW53844   5.277   0.208   7.992 -0.0081  0.4668  0.0822
17468SOL    HW153845   5.363   0.223   8.031  0.5744  1.7883 -1.5536
17468SOL    HW253846   5.216   0.245   8.055  0.6825  0.3343  0.8535
17469SOL     OW53847   3.956   6.886   8.303 -0.1651  0.2722  0.6458
17469SOL    HW153848   3.895   6.867   8.374  1.5817 -0.3738  2.0378
17469SOL    HW253849   3.986   6.800   8.273 -0.0906  0.5758 -0.1838
17470SOL     OW53850   4.884   1.900   8.698  0.3320 -0.0740  0.3888
17470SOL    HW153851   4.942   1.874   8.627 -0.1602 -0.6495  0.1940
17470SOL    HW253852   4.829   1.824   8.714  0.2231  0.1547  1.1779
17471SOL     OW53853   5.197   7.437   9.064 -0.4981  0.4987 -0.3142
17471SOL    HW153854   5.248   7.508   9.104 -0.8217  1.0013 -0.7795
17471SOL    HW253855   5.156   7.477   8.988 -2.0927  0.2904  0.3835
17472SOL     OW53856   3.590   7.048   8.072 -0.2696  0.3818  0.0915
17472SOL    HW153857   3.625   6.987   8.008 -0.5244 -0.4713  0.7508
17472SOL    HW253858   3.593   7.001   8.155  0.3171  1.5575  0.7763
17473SOL     OW53859   3.057   2.174   6.090 -0.2100  0.0490 -0.2213
17473SOL    HW153860   3.069   2.114   6.017  0.2691 -0.9615  0.6535
17473SOL    HW253861   3.138   2.167   6.141  0.4412  2.4529 -0.7681
17474SOL     OW53862   4.572   6.980   9.276  0.3491  0.3907  0.3391
17474SOL    HW153863   4.608   7.069   9.274 -0.1644  0.5856 -1.2312
17474SOL    HW253864   4.507   6.982   9.346  0.0183  1.3885  0.0122
17475SOL     OW53865   4.924   7.539   6.484 -0.4035  0.4605  0.4277
17475SOL    HW153866   4.832   7.551   6.509 -1.0246  0.3331 -1.6190
17475SOL    HW253867   4.932   7.445   6.467 -0.6684  0.7903 -1.9431
17476SOL     OW53868   2.801   0.762   9.357  0.1116 -0.2120  0.0510
17476SOL    HW153869   2.849   0.729   9.433  0.8601  2.4608  0.8479
17476SOL    HW253870   2.726   0.809   9.394 -0.5909 -0.4852 -0.9792
17477SOL     OW53871   4.205   6.356   7.814 -0.5208  0.1829  0.3621
17477SOL    HW153872   4.175   6.367   7.724 -1.6240  1.2681  0.8354
17477SOL    HW253873   4.300   6.346   7.807 -0.2230  2.8771 -0.7773
17478SOL     OW53874   4.420   5.791   9.150  0.2716 -0.3567  0.2633
17478SOL    HW153875   4.401   5.712   9.100  0.8987 -0.1572 -0.2974
17478SOL    HW253876   4.371   5.780   9.232 -2.4864  0.2046 -1.1644
17479SOL     OW53877   4.003   7.040   6.673 -0.5515 -0.3286  0.1085
17479SOL    HW153878   3.971   6.972   6.732  0.3107 -1.5058 -0.7378
17479SOL    HW253879   3.978   7.122   6.716 -1.6108 -1.1568  1.1560
17480SOL     OW53880   4.856   0.330   9.710  0.1314  0.3201  0.4493
17480SOL    HW153881   4.948   0.345   9.733  0.0264  0.4329  0.7839
17480SOL    HW253882   4.833   0.404   9.654  0.7283 -0.5402 -1.0078
17481SOL     OW53883   4.991   0.313   8.437  0.3847 -0.3774  0.0048
17481SOL    HW153884   4.954   0.330   8.523  0.7391 -1.7550  0.4520
17481SOL    HW253885   4.978   0.219   8.423  2.5691 -0.6961 -0.3332
17482SOL     OW53886   3.576   0.307   6.774 -0.0971 -0.4551  0.2927
17482SOL    HW153887   3.556   0.261   6.855  0.4587 -0.2503  0.5536
17482SOL    HW253888   3.520   0.385   6.776 -0.8999 -1.0155 -0.0612
17483SOL     OW53889   6.184   0.140   6.561 -0.0809  0.3133  0.4647
17483SOL    HW153890   6.252   0.152   6.627 -0.5355 -1.7505  1.4022
17483SOL    HW253891   6.102   0.144   6.610 -0.5261  0.5842 -0.2884
17484SOL     OW53892   4.251   5.379   8.743  0.0867 -0.4758  0.8313
17484SOL    HW153893   4.320   5.313   8.750  0.7406  0.2705  1.5845
17484SOL    HW253894   4.172   5.328   8.724  0.3008 -1.6459  2.8196
17485SOL     OW53895   2.895   7.159  10.062 -0.1720  0.6713  0.5599
17485SOL    HW153896   2.809   7.155  10.103 -0.0942  1.5264  0.8321
17485SOL    HW253897   2.903   7.251  10.033  0.9875  0.8179  1.2985
17486SOL     OW53898   4.019   7.601   8.086 -0.4081 -0.0891  0.2526
17486SOL    HW153899   4.016   7.625   8.179 -0.3040  0.5848  0.0798
17486SOL    HW253900   3.984   7.677   8.040 -0.8372 -0.5766 -0.2405
17487SOL     OW53901   6.015   0.319   6.272  0.6514 -0.0432 -0.1387
17487SOL    HW153902   6.041   0.226   6.269  0.5143 -0.1690  1.5702
17487SOL    HW253903   6.093   0.363   6.307 -0.2380  0.0426  1.8514
17488SOL     OW53904   3.791   6.167   9.148 -0.1432 -0.4955 -0.0099
17488SOL    HW153905   3.781   6.127   9.061  0.4388 -0.2584 -0.1905
17488SOL    HW253906   3.878   6.208   9.145 -1.4672  2.5404 -0.5355
17489SOL     OW53907   2.853   1.199   6.441 -0.2833 -0.0697  0.4971
17489SOL    HW153908   2.942   1.171   6.419 -0.8414 -0.8210 -0.9945
17489SOL    HW253909   2.863   1.290   6.468  0.9042 -0.0126 -0.0368
17490SOL     OW53910   5.547   6.424   8.672  0.0896 -0.3948  0.0683
17490SOL    HW153911   5.561   6.454   8.582  0.3509  0.1336  0.2866
17490SOL    HW253912   5.635   6.420   8.710  0.0706 -1.4270  0.0543
17491SOL     OW53913   4.719   7.199   9.018  0.4500 -0.6086 -0.6192
17491SOL    HW153914   4.695   7.232   9.104 -0.1226 -0.2761 -0.8992
17491SOL    HW253915   4.812   7.218   9.010  0.3351  0.0638 -0.3826
17492SOL     OW53916   2.630   7.125   8.596  0.2683  0.0539 -0.3498
17492SOL    HW153917   2.711   7.127   8.544  0.7072  1.7140  0.3315
17492SOL    HW253918   2.660   7.132   8.686 -0.5948 -0.7964  0.0166
17493SOL     OW53919   5.127   7.996   7.328  0.3782 -0.8238  0.0612
17493SOL    HW153920   5.104   7.931   7.262 -2.8977  0.5364 -0.3579
17493SOL    HW253921   5.073   7.973   7.404  0.8483  0.1097  0.7064
17494SOL     OW53922   3.201   6.956   8.270 -0.6689  0.3019  0.3627
17494SOL    HW153923   3.233   7.045   8.286  0.6139  0.1376 -0.9631
17494SOL    HW253924   3.201   6.914   8.355 -0.0216  1.1938  0.8170
17495SOL     OW53925   1.686   7.136   9.478  0.1151  0.2937  0.4196
17495SOL    HW153926   1.737   7.092   9.410 -0.4888 -0.0090  0.1595
17495SOL    HW253927   1.737   7.123   9.558 -0.5258 -1.7418  0.5422
17496SOL     OW53928   3.622   6.549   8.542 -0.1785  0.0134 -0.5240
17496SOL    HW153929   3.710   6.578   8.567 -0.3744  0.6776 -0.5932
17496SOL    HW253930   3.581   6.521   8.624  0.5182 -1.4938 -0.6516
17497SOL     OW53931   4.165   7.953   7.993  0.0714  0.0172  0.7042
17497SOL    HW153932   4.084   7.978   7.949  0.1322 -2.1223 -0.7551
17497SOL    HW253933   4.234   8.001   7.947  0.0036 -1.2524 -0.7743
17498SOL     OW53934   5.767   0.359   8.508 -0.0509  0.0711 -0.2113
17498SOL    HW153935   5.829   0.339   8.437 -1.0730  0.6102 -1.2949
17498SOL    HW253936   5.806   0.320   8.586  2.0079  0.9937 -0.7070
17499SOL     OW53937   3.862   7.856   7.473  0.7727  0.1202  0.2920
17499SOL    HW153938   3.786   7.888   7.521  1.0844  1.7176 -0.2018
17499SOL    HW253939   3.837   7.861   7.381  1.7115  1.5096  0.0637
17500SOL     OW53940   5.514   1.141   7.544  0.7814  0.1213  0.1931
17500SOL    HW153941   5.571   1.211   7.515  1.0930 -0.0197  0.4626
17500SOL    HW253942   5.425   1.176   7.533  0.9044  0.2144 -0.5481
17501SOL     OW53943   3.599   6.308   7.640  0.0986  0.3616 -0.1736
17501SOL    HW153944   3.565   6.395   7.619 -3.0922 -0.6031  0.3350
17501SOL    HW253945   3.664   6.323   7.708 -0.6596  2.3395  0.1888
17502SOL     OW53946   4.944   7.436   8.149  0.3429  0.0709 -0.5820
17502SOL    HW153947   4.966   7.346   8.173  0.6612 -0.0619 -1.3403
17502SOL    HW253948   5.015   7.489   8.185  0.9165 -0.1474 -1.3535
17503SOL     OW53949   5.513   6.860   8.444  0.3445 -0.3316 -0.1602
17503SOL    HW153950   5.447   6.837   8.510  1.2998  0.2773  1.0620
17503SOL    HW253951   5.481   6.941   8.405 -0.4090 -0.8883 -0.7155
17504SOL     OW53952   4.308   0.871   7.900 -0.1300  0.2303 -0.5038
17504SOL    HW153953   4.249   0.946   7.910 -0.0968  0.2379 -0.3669
17504SOL    HW253954   4.253   0.802   7.863  0.0360  0.5877 -1.4548
17505SOL     OW53955   5.204   7.731   8.362  0.0932 -0.5344 -0.1495
17505SOL    HW153956   5.130   7.770   8.317  0.6688  1.3013  0.3900
17505SOL    HW253957   5.281   7.761   8.313  0.5037 -2.5336 -0.7954
17506SOL     OW53958   3.360   6.810   6.929 -0.3712  0.1783  0.6055
17506SOL    HW153959   3.294   6.841   6.867  0.9837  0.3851 -0.7940
17506SOL    HW253960   3.404   6.890   6.960  2.7955 -0.0338 -2.6375
17507SOL     OW53961   3.272   0.168   8.113 -0.1019  0.0310 -0.0565
17507SOL    HW153962   3.237   0.080   8.100  0.9342 -0.2127 -1.5290
17507SOL    HW253963   3.292   0.172   8.207  2.6156 -2.4497 -0.3638
17508SOL     OW53964   4.027   0.914   8.179 -0.1752 -0.6262 -0.2900
17508SOL    HW153965   4.044   0.823   8.157  2.8084 -0.4059  0.5574
17508SOL    HW253966   4.102   0.939   8.234 -0.7444  2.3898 -0.7151
17509SOL     OW53967   6.698   7.281   8.697 -0.0023 -0.2036 -0.1626
17509SOL    HW153968   6.683   7.331   8.616  0.8343  0.5589  0.1378
17509SOL    HW253969   6.709   7.348   8.765 -2.6269 -0.8230  1.0052
17510SOL     OW53970   6.476   5.161   9.789 -0.0084  0.1111 -0.2148
17510SOL    HW153971   6.554   5.216   9.800  0.7205 -1.1181  0.9436
17510SOL    HW253972   6.482   5.130   9.699  0.0999  1.1066 -0.5663
17511SOL     OW53973   5.212   0.328   8.231 -0.1579 -0.2161  0.5406
17511SOL    HW153974   5.126   0.329   8.271 -0.8061 -0.5829 -0.7855
17511SOL    HW253975   5.237   0.421   8.225 -0.0250 -0.1528  1.7591
17512SOL     OW53976   5.966   7.119   6.869  0.1174  0.3707 -0.0266
17512SOL    HW153977   5.935   7.198   6.914 -0.6892  0.4839 -0.7545
17512SOL    HW253978   5.911   7.113   6.790 -0.1709 -1.1856  0.2552
17513SOL     OW53979   6.385   7.055   8.180  0.6387 -0.0305  0.2265
17513SOL    HW153980   6.399   6.960   8.178 -1.6084 -0.4058 -0.1610
17513SOL    HW253981   6.320   7.071   8.112  2.2066  2.0749 -0.8876
17514SOL     OW53982   4.174   0.132   9.314  0.2370 -0.2534 -0.7863
17514SOL    HW153983   4.093   0.169   9.347  0.2026 -0.9491 -0.0764
17514SOL    HW253984   4.228   0.208   9.291  0.0680  0.2406  0.4118
17515SOL     OW53985   3.410   0.295   7.354 -0.2862  0.0872  0.1154
17515SOL    HW153986   3.374   0.353   7.421  0.7070 -0.9448  1.5936
17515SOL    HW253987   3.483   0.251   7.397 -0.8450 -2.0755 -1.0199
17516SOL     OW53988   5.809   0.386   9.233 -0.6724  0.3805 -0.1839
17516SOL    HW153989   5.811   0.464   9.288 -0.4514  0.5192 -0.3850
17516SOL    HW253990   5.901   0.367   9.216 -0.7230  0.0255 -0.0634
17517SOL     OW53991   4.730   0.596   6.869  0.5755 -0.0522 -0.1325
17517SOL    HW153992   4.792   0.569   6.801 -0.5325 -0.1784 -1.1281
17517SOL    HW253993   4.697   0.513   6.905 -0.1483 -0.0005 -0.6730
17518SOL     OW53994   4.343   7.735   7.673 -0.3156  0.4218 -0.0374
17518SOL    HW153995   4.251   7.749   7.648 -1.0480 -0.7693  1.7422
17518SOL    HW253996   4.341   7.736   7.769  1.5160  0.1803  0.0317
17519SOL     OW53997   6.366   0.076   8.662 -0.2190 -0.3344 -0.1607
17519SOL    HW153998   6.429   0.147   8.669 -0.7455  0.1209  0.0096
17519SOL    HW253999   6.419  -0.004   8.664  0.1940 -0.1217  3.0996
17520SOL     OW54000   6.500   7.843   8.603  0.1337  0.3199 -0.3976
17520SOL    HW154001   6.500   7.798   8.687  0.8451  1.0638  0.0170
17520SOL    HW254002   6.444   7.789   8.547 -1.2706  0.4026  0.8631
17521SOL     OW54003   4.252   1.518   8.990  0.0239  0.0100  0.5667
17521SOL    HW154004   4.304   1.566   8.925  1.4321 -0.8336  1.0216
17521SOL    HW254005   4.208   1.586   9.040 -0.0500  0.7210 -0.4357
17522SOL     OW54006   4.626   6.714   8.275 -0.0005 -0.0747  0.3350
17522SOL    HW154007   4.684   6.666   8.217  0.1519  0.0347  0.3975
17522SOL    HW254008   4.637   6.673   8.361  1.4642  1.1925  0.7908
17523SOL     OW54009   5.566   7.384  10.467 -0.1005 -0.5790 -0.4371
17523SOL    HW154010   5.658   7.375  10.442 -0.0895  1.6499 -1.4542
17523SOL    HW254011   5.526   7.301  10.441  1.5546 -1.5146 -0.1601
17524SOL     OW54012   4.687   7.759   7.196 -0.0749  0.1524  0.5614
17524SOL    HW154013   4.701   7.692   7.263 -0.1114 -2.4387 -1.8355
17524SOL    HW254014   4.775   7.782   7.167  0.0168 -3.0622 -2.3272
17525SOL     OW54015   3.722   7.033   7.037  0.1729 -0.2542 -0.3146
17525SOL    HW154016   3.634   6.998   7.050  0.4070 -0.5205  0.6502
17525SOL    HW254017   3.710   7.128   7.034 -0.3624 -0.3404 -2.1046
17526SOL     OW54018   3.241   7.268   8.130  0.3919 -0.1927  0.1882
17526SOL    HW154019   3.327   7.309   8.139  1.1457 -1.7108  0.2192
17526SOL    HW254020   3.195   7.293   8.210  0.1553  2.0353 -0.5935
17527SOL     OW54021   4.508   0.532  10.289 -0.0432 -0.1643 -0.0492
17527SOL    HW154022   4.552   0.482  10.220  0.5314 -0.7096  0.6924
17527SOL    HW254023   4.567   0.606  10.306  0.1886 -0.4385  0.3644
17528SOL     OW54024   4.206   5.850   9.637 -0.1577  0.3479  0.2735
17528SOL    HW154025   4.165   5.933   9.616 -0.8898 -0.6546 -2.6601
17528SOL    HW254026   4.181   5.834   9.729  1.3220  3.9837  1.4879
17529SOL     OW54027   4.819   0.905   9.291  0.3709  0.2215 -0.1902
17529SOL    HW154028   4.767   0.836   9.249 -0.0699  1.3339 -1.5760
17529SOL    HW254029   4.757   0.948   9.351  0.8936 -1.1253  1.3521
17530SOL     OW54030   3.196   0.229  10.719  0.7304  0.1437 -0.5497
17530SOL    HW154031   3.226   0.140  10.701  0.8398  0.1829 -0.5585
17530SOL    HW254032   3.136   0.249  10.646  1.5120  0.4646 -1.1145
17531SOL     OW54033   5.172   7.587   9.759 -0.3000  0.0922 -0.4691
17531SOL    HW154034   5.245   7.634   9.718 -0.0518 -1.1780 -1.5666
17531SOL    HW254035   5.214   7.536   9.829 -0.1729 -0.3248 -0.8390
17532SOL     OW54036   4.120   7.577  10.607  0.4751  0.1544  0.3696
17532SOL    HW154037   4.174   7.549  10.533  0.9313 -0.9106  1.0730
17532SOL    HW254038   4.133   7.509  10.673 -0.7507  0.5348  1.0363
17533SOL     OW54039   3.179   7.882   9.702 -0.1406  0.1360  0.1665
17533SOL    HW154040   3.270   7.868   9.677 -0.6890 -1.1283 -1.3058
17533SOL    HW254041   3.182   7.955   9.763  1.8722 -0.0062  0.3089
17534SOL     OW54042   3.764   7.536   7.793  0.5050  0.4719 -0.3041
17534SOL    HW154043   3.750   7.541   7.698  1.2983  0.8836 -0.4102
17534SOL    HW254044   3.834   7.600   7.810 -1.2907  2.2359  0.9002
17535SOL     OW54045   3.549   7.027  11.424 -0.4656  0.3559  0.8111
17535SOL    HW154046   3.571   7.063  11.510  1.2189  1.0943  0.1289
17535SOL    HW254047   3.597   6.944  11.420 -1.2748 -0.1297  0.9115
17536SOL     OW54048   5.033   6.813  11.018 -0.2382  0.1579  0.4077
17536SOL    HW154049   5.009   6.753  11.088  0.3008 -1.6487 -0.8752
17536SOL    HW254050   5.116   6.851  11.046 -0.2484 -0.2129  0.9531
17537SOL     OW54051   4.398   6.758  11.614  0.1546  0.0732  0.1520
17537SOL    HW154052   4.356   6.843  11.608  0.2451  0.0449 -3.6795
17537SOL    HW254053   4.344   6.700  11.560  1.6247 -1.5526  0.3136
17538SOL     OW54054   3.742   6.932  10.793  0.4969  0.0322  0.0331
17538SOL    HW154055   3.723   6.977  10.875  3.6461 -1.8670  1.9874
17538SOL    HW254056   3.806   6.987  10.749  0.9752 -0.3142  0.2797
17539SOL     OW54057   3.750   0.212  10.806  0.7222 -0.1334 -0.1341
17539SOL    HW154058   3.803   0.133  10.811  1.1122  0.1677  0.6277
17539SOL    HW254059   3.732   0.223  10.712  0.8388 -1.0014 -0.2670
17540SOL     OW54060   4.441   7.549   8.890  0.0714 -0.1303  0.4520
17540SOL    HW154061   4.514   7.605   8.863  0.0409 -0.7915 -1.1586
17540SOL    HW254062   4.480   7.464   8.907 -0.4313 -0.9100 -1.8945
17541SOL     OW54063   4.541   1.624  10.974  0.1887 -0.0628  0.0367
17541SOL    HW154064   4.568   1.609  10.883  1.0296 -0.9872  0.4226
17541SOL    HW254065   4.576   1.549  11.022  1.3507  1.3076  1.4454
17542SOL     OW54066   3.545   7.291  10.498  0.1938 -0.0931  0.0221
17542SOL    HW154067   3.585   7.303  10.411  1.8805 -2.1820  0.4291
17542SOL    HW254068   3.609   7.326  10.559  1.0900 -2.5999  0.6340
17543SOL     OW54069   3.817   7.821  10.063 -0.0739 -0.1536  0.5188
17543SOL    HW154070   3.835   7.881  10.136  1.9923 -0.9307  0.7087
17543SOL    HW254071   3.814   7.734  10.104 -1.5300 -0.3651  0.0243
17544SOL     OW54072   5.601   1.509   9.665  0.2142  0.0512 -0.1778
17544SOL    HW154073   5.623   1.417   9.646 -1.2572 -0.2336 -0.6788
17544SOL    HW254074   5.685   1.555   9.661  1.1721 -1.4617  1.3432
17545SOL     OW54075   5.166   0.370  11.500  0.0524 -0.7453  0.2302
17545SOL    HW154076   5.248   0.407  11.466 -0.6117  0.1417 -0.4461
17545SOL    HW254077   5.124   0.329  11.424 -0.6453 -0.2293  0.3292
17546SOL     OW54078   6.364   7.339   7.505  0.1551  0.2464  0.3528
17546SOL    HW154079   6.397   7.395   7.576  1.4733 -1.1527  0.8839
17546SOL    HW254080   6.394   7.251   7.528 -0.1308 -0.3708 -1.5113
17547SOL     OW54081   4.865   6.596   9.855  0.7694  0.4988  0.5538
17547SOL    HW154082   4.813   6.586   9.776  1.1667 -0.1764  0.3787
17547SOL    HW254083   4.800   6.595   9.926  0.3706  1.5720  0.2211
17548SOL     OW54084   4.525   1.217   9.391 -0.5888 -0.2564 -0.2916
17548SOL    HW154085   4.455   1.279   9.412 -0.0267  0.9439 -1.7360
17548SOL    HW254086   4.499   1.180   9.306  0.6555  0.4492 -0.9998
17549SOL     OW54087   2.513   6.041  10.747  0.0862 -0.0416  0.0976
17549SOL    HW154088   2.530   5.957  10.790  1.1458 -0.2053 -0.5993
17549SOL    HW254089   2.506   6.020  10.654 -1.0193  0.4678  0.0568
17550SOL     OW54090   3.421   5.861   9.266 -0.0577 -0.1846 -0.1119
17550SOL    HW154091   3.365   5.862   9.343 -0.6267 -1.6246 -0.4750
17550SOL    HW254092   3.509   5.878   9.301  0.0063 -2.7098  1.1670
17551SOL     OW54093   3.760   7.055  10.354 -0.5151 -0.1980 -0.1987
17551SOL    HW154094   3.826   7.082  10.418 -0.7779  1.4748 -0.6069
17551SOL    HW254095   3.723   7.136  10.321 -1.7016 -1.0780 -1.1265
17552SOL     OW54096   4.196   0.464   9.793  0.0090 -0.4179  0.1921
17552SOL    HW154097   4.201   0.405   9.718 -0.0538 -0.1207 -0.0500
17552SOL    HW254098   4.210   0.551   9.755  0.7288 -0.3346  0.6348
17553SOL     OW54099   1.885   7.214  10.782 -0.1442  0.6942  0.0528
17553SOL    HW154100   1.829   7.188  10.855 -1.4305  1.9600 -0.4255
17553SOL    HW254101   1.825   7.253  10.718  1.1064  0.7498 -1.1431
17554SOL     OW54102   6.386   6.513   7.917  0.2307  0.9647  0.3099
17554SOL    HW154103   6.313   6.545   7.970  0.9794 -0.3856  2.3203
17554SOL    HW254104   6.463   6.528   7.972  0.8883 -1.7563  0.2744
17555SOL     OW54105   6.204   1.096   9.146 -0.5059  0.2631 -0.1893
17555SOL    HW154106   6.115   1.127   9.163 -0.6394  0.5307 -1.2904
17555SOL    HW254107   6.247   1.169   9.101  0.6491  0.5827  1.3486
17556SOL     OW54108   4.734   7.746   9.892  0.2946  0.2925 -0.7856
17556SOL    HW154109   4.799   7.736   9.962  0.9714  1.1698 -1.2653
17556SOL    HW254110   4.672   7.811   9.926 -1.9393 -2.4516  0.7792
17557SOL     OW54111   3.427   7.630  10.050 -0.5065  0.2278  0.2843
17557SOL    HW154112   3.381   7.574   9.988  1.8534 -0.3375 -1.0786
17557SOL    HW254113   3.419   7.718  10.014 -1.2451  0.2706  0.5407
17558SOL     OW54114   3.587   7.537  11.154  0.3188  0.3038 -0.1447
17558SOL    HW154115   3.563   7.446  11.139 -0.6703  0.2281  1.6282
17558SOL    HW254116   3.505   7.579  11.181  1.1024  1.3315  0.6994
17559SOL     OW54117   4.157   7.260   9.197  0.5570 -0.0033  0.2624
17559SOL    HW154118   4.246   7.294   9.184  0.9381 -0.6677  1.0341
17559SOL    HW254119   4.162   7.209   9.279 -0.7868  0.8191  0.8966
17560SOL     OW54120   4.733   7.122  11.260  0.2230 -0.1393  0.4887
17560SOL    HW154121   4.666   7.067  11.219 -0.5262  1.2421 -0.2032
17560SOL    HW254122   4.787   7.153  11.187  1.1601 -0.6125  0.9587
17561SOL     OW54123   2.801   7.946  11.937  0.3419  0.1633 -0.0375
17561SOL    HW154124   2.787   7.852  11.923 -0.8380  0.2912  0.1417
17561SOL    HW254125   2.759   7.964  12.020  1.8357  0.5991  0.6556
17562SOL     OW54126   1.344   7.500   9.615 -0.2584  0.1330  0.1440
17562SOL    HW154127   1.415   7.482   9.553 -0.6197  0.4812 -0.3807
17562SOL    HW254128   1.302   7.415   9.629 -0.4199  0.1195 -0.4012
17563SOL     OW54129   2.854   6.856   8.657 -0.0461 -0.4933 -0.1626
17563SOL    HW154130   2.836   6.789   8.723 -0.0180  0.1411  0.4917
17563SOL    HW254131   2.783   6.919   8.667 -0.8503 -1.1027 -1.7036
17564SOL     OW54132   3.869   6.808  11.138 -0.5597  0.2131  0.1674
17564SOL    HW154133   3.881   6.891  11.093  1.5398  0.1466  0.4916
17564SOL    HW254134   3.878   6.742  11.069 -0.0643  0.1929  0.2504
17565SOL     OW54135   5.800   7.977  10.677 -0.2713 -0.8992 -0.1194
17565SOL    HW154136   5.706   7.995  10.682 -0.2167 -0.9745  1.8189
17565SOL    HW254137   5.842   8.062  10.685 -0.1515 -1.0187  0.5299
17566SOL     OW54138   6.221   7.255   8.578  0.2585  0.0497 -0.6331
17566SOL    HW154139   6.296   7.257   8.519 -0.1595 -0.6502 -1.2122
17566SOL    HW254140   6.204   7.347   8.599  1.8857  0.1720  0.3243
17567SOL     OW54141   4.689   7.420  10.125  0.6108 -0.2856 -0.2800
17567SOL    HW154142   4.704   7.329  10.149  1.3974 -0.1020 -0.0190
17567SOL    HW254143   4.747   7.434  10.050  1.7875  0.4471  0.7248
17568SOL     OW54144   5.127   0.817  10.969  0.5137 -0.1293 -0.0814
17568SOL    HW154145   5.144   0.776  11.053  1.0339 -0.1871 -0.2162
17568SOL    HW254146   5.208   0.861  10.946  0.3671 -0.0926 -0.5430
17569SOL     OW54147   3.744   7.899   8.545 -1.0636 -0.5239  0.3041
17569SOL    HW154148   3.821   7.940   8.583 -1.3871 -1.4080  2.0336
17569SOL    HW254149   3.776   7.818   8.505 -1.0712 -0.8948  1.0289
17570SOL     OW54150   3.054   0.623  10.647 -0.1652  0.2542  0.3239
17570SOL    HW154151   2.978   0.568  10.627 -1.0555  1.2808  0.7739
17570SOL    HW254152   3.039   0.703  10.597 -0.1619  1.0694  1.5763
17571SOL     OW54153   3.763   0.163  11.314 -0.2600  0.0177  0.3488
17571SOL    HW154154   3.721   0.163  11.227  1.0891  0.6189 -0.3349
17571SOL    HW254155   3.721   0.235  11.361  0.6161  1.2553 -0.6711
17572SOL     OW54156   3.507   6.869   0.102  0.6780  0.5021  0.0355
17572SOL    HW154157   3.594   6.907   0.113  0.2129  2.3372 -1.9183
17572SOL    HW254158   3.448   6.945   0.098 -1.4590 -0.6929  3.7513
17573SOL     OW54159   4.640   7.556  10.765  0.2352 -0.1263  0.0994
17573SOL    HW154160   4.719   7.520  10.806  0.7956  2.5520  1.6424
17573SOL    HW254161   4.578   7.484  10.764  0.6304 -0.8388  4.6265
17574SOL     OW54162   6.176   7.927  10.181 -0.4467 -0.0314  0.1659
17574SOL    HW154163   6.269   7.909  10.198 -0.2021  0.2765 -0.7502
17574SOL    HW254164   6.147   7.853  10.127 -0.5630  0.1722 -0.0555
17575SOL     OW54165   5.646   0.348  10.325 -0.3288  0.4672 -0.1140
17575SOL    HW154166   5.655   0.379  10.415  1.0031 -0.4003  0.0647
17575SOL    HW254167   5.609   0.260  10.333 -1.6376  0.9490 -0.5081
17576SOL     OW54168   4.825   0.540   9.548 -0.3595 -0.1510  0.0479
17576SOL    HW154169   4.883   0.563   9.475  2.1728  0.6087  2.1226
17576SOL    HW254170   4.801   0.625   9.586 -0.3373 -0.5799  1.0337
17577SOL     OW54171   2.511   0.949  10.931  0.0757 -0.0540 -0.4963
17577SOL    HW154172   2.448   0.881  10.909 -1.0409  0.8214 -0.0617
17577SOL    HW254173   2.592   0.921  10.888  0.3191 -2.8538  1.5944
17578SOL     OW54174   6.417   0.785   9.958  0.1617 -0.4827  0.3832
17578SOL    HW154175   6.510   0.797   9.977  0.1150 -1.8796  1.7692
17578SOL    HW254176   6.376   0.866   9.985  0.9264  0.0035  0.1236
17579SOL     OW54177   4.278   7.533  10.386  0.0875  0.5056  0.3552
17579SOL    HW154178   4.338   7.458  10.395 -1.7586 -0.9704  0.9095
17579SOL    HW254179   4.200   7.496  10.345 -0.8450  2.1688  0.5481
17580SOL     OW54180   3.812   0.274   9.678 -0.2857 -0.0645  0.2059
17580SOL    HW154181   3.757   0.247   9.605 -1.4471  0.4573  0.8462
17580SOL    HW254182   3.751   0.282   9.752  0.3386  2.1524  0.5565
17581SOL     OW54183   4.485   7.338  10.422  0.0620 -0.3814 -0.0489
17581SOL    HW154184   4.455   7.287  10.346 -0.3578 -0.7284  0.3431
17581SOL    HW254185   4.570   7.301  10.444 -0.8717 -1.9307  1.1389
17582SOL     OW54186   2.284   6.564  10.463 -0.9355 -0.1660  0.1207
17582SOL    HW154187   2.309   6.489  10.516 -0.4015  0.1590  0.3428
17582SOL    HW254188   2.207   6.600  10.506 -0.8897 -0.2899  0.3067
17583SOL     OW54189   3.385   6.545  11.278 -0.5026  0.1533  0.6568
17583SOL    HW154190   3.467   6.521  11.320 -0.2239 -2.0508 -0.9695
17583SOL    HW254191   3.346   6.610  11.336  1.9480  0.6022  1.9236
17584SOL     OW54192   6.909   1.112   9.315 -0.2185  0.1511  0.5530
17584SOL    HW154193   6.989   1.083   9.272  0.2016 -0.7299  1.8779
17584SOL    HW254194   6.842   1.050   9.285 -0.7426  1.6342 -1.5548
17585SOL     OW54195   4.833   0.886  10.074  0.2390 -0.2545 -0.7163
17585SOL    HW154196   4.866   0.835  10.000  1.1964  0.5755 -0.8724
17585SOL    HW254197   4.862   0.837  10.151  1.9754  0.5137 -0.8427
17586SOL     OW54198   3.050   6.800  11.719 -0.0156  0.1130  0.1557
17586SOL    HW154199   3.032   6.891  11.743  0.3951  0.5232 -1.0285
17586SOL    HW254200   3.103   6.766  11.791  0.0447  0.8915  0.4861
17587SOL     OW54201   5.358   7.565  10.909 -0.4020  0.3049  0.6343
17587SOL    HW154202   5.363   7.477  10.870 -0.5526  0.1641  0.9298
17587SOL    HW254203   5.348   7.623  10.834  1.0225  0.1961  0.3262
17588SOL     OW54204   5.228   6.588  10.475  0.4906 -0.4868 -0.0049
17588SOL    HW154205   5.254   6.619  10.389  0.2000 -0.0509  0.0621
17588SOL    HW254206   5.192   6.665  10.519  0.1685 -0.8165  0.3189
17589SOL     OW54207   3.407   7.417   8.408  0.2865  0.1903  0.0390
17589SOL    HW154208   3.350   7.342   8.423 -0.1993  0.9354  2.3593
17589SOL    HW254209   3.356   7.476   8.352 -0.9537  0.4771  1.3962
17590SOL     OW54210   5.553   6.322   9.555  0.0187 -0.3259  0.2958
17590SOL    HW154211   5.587   6.404   9.519 -0.5702  0.1142  0.7335
17590SOL    HW254212   5.630   6.277   9.589  0.2609  0.3473  0.6591
17591SOL     OW54213   5.173   0.652  10.713  0.1405 -0.3416  0.5074
17591SOL    HW154214   5.138   0.697  10.790 -0.1650  2.2633 -1.0279
17591SOL    HW254215   5.265   0.639  10.732  0.6747  2.6109  0.4032
17592SOL     OW54216   6.544   7.932  10.754  0.0044  0.3802 -0.0804
17592SOL    HW154217   6.574   7.849  10.716 -0.7124  0.0894 -0.0310
17592SOL    HW254218   6.570   7.928  10.846  0.4775  0.4630 -0.2077
17593SOL     OW54219   3.880   7.735  11.162 -0.2988 -0.4170 -0.2272
17593SOL    HW154220   3.945   7.739  11.091  0.4844  0.2268  0.5054
17593SOL    HW254221   3.918   7.672  11.224 -1.1946 -1.3192 -0.5631
17594SOL     OW54222   4.143   0.252  10.684  0.1105 -0.0219  0.3739
17594SOL    HW154223   4.069   0.195  10.705  0.8227 -1.0765  0.1546
17594SOL    HW254224   4.205   0.194  10.640  0.4180  1.1926 -0.8481
17595SOL     OW54225   4.720   0.535  10.755  0.0858  0.1617  0.0259
17595SOL    HW154226   4.754   0.448  10.735  0.5086  0.2693  0.2647
17595SOL    HW254227   4.748   0.552  10.845  0.0133  0.5431 -0.0217
17596SOL     OW54228   4.695   0.824   0.215  0.4837 -0.0734  0.4607
17596SOL    HW154229   4.633   0.893   0.240  0.0219 -0.4378  0.3371
17596SOL    HW254230   4.665   0.746   0.262  0.6599 -0.3314  0.1482
17597SOL     OW54231   5.428   7.304   0.124 -0.3014 -0.2035  0.3016
17597SOL    HW154232   5.359   7.245   0.156 -1.1889  0.5029 -0.2516
17597SOL    HW254233   5.404   7.320   0.032 -0.6555  1.7832  0.6971
17598SOL     OW54234   4.866   0.065  11.562 -0.1325  0.0881  0.1747
17598SOL    HW154235   4.782   0.029  11.591  1.2851 -1.4114  2.8158
17598SOL    HW254236   4.922  -0.011  11.551  1.2890  1.1362 -0.1335
17599SOL     OW54237   4.853   7.551  10.319 -0.0531  0.0402 -0.6993
17599SOL    HW154238   4.814   7.522  10.237  0.9173 -2.4433 -0.3718
17599SOL    HW254239   4.930   7.495  10.330  0.6254  1.2430  1.2341
17600SOL     OW54240   3.089   7.514  12.079 -0.2013 -0.1090  0.6415
17600SOL    HW154241   3.092   7.418  12.080 -1.0398 -0.1358  1.3545
17600SOL    HW254242   3.004   7.535  12.042 -0.1921  0.3646  0.8836
17601SOL     OW54243   3.283   6.855  12.377  0.2677 -0.3044 -0.1821
17601SOL    HW154244   3.248   6.877  12.464 -0.5382  0.1939 -0.6204
17601SOL    HW254245   3.365   6.905  12.372  0.6862 -0.8943  0.5611
17602SOL     OW54246   6.116   0.845  12.267  0.1400 -0.4963 -0.8929
17602SOL    HW154247   6.030   0.804  12.271  0.1578 -0.5171 -0.7026
17602SOL    HW254248   6.097   0.939  12.257  0.0965 -0.5198 -1.0262
17603SOL     OW54249   4.084   7.715  11.469  0.2215  0.0423 -0.4432
17603SOL    HW154250   4.086   7.760  11.385  2.7360 -0.6532 -0.8474
17603SOL    HW254251   3.991   7.709  11.491 -0.4330  1.4077 -2.5048
17604SOL     OW54252   3.574   7.605  10.616 -0.3241  0.1257  0.5419
17604SOL    HW154253   3.630   7.621  10.692 -1.6016 -0.1485  1.5717
17604SOL    HW254254   3.495   7.566  10.652 -0.3370 -1.5313 -1.1070
17605SOL     OW54255   3.107   7.859  12.187 -0.8870 -0.3456  0.0933
17605SOL    HW154256   3.013   7.851  12.171 -1.1362 -0.8190  1.5808
17605SOL    HW254257   3.147   7.853  12.100 -2.2765  0.9848 -0.6840
17606SOL     OW54258   4.733   7.113   0.063 -0.3904  0.7327  0.4068
17606SOL    HW154259   4.794   7.050   0.100  0.6750  1.9306  0.7566
17606SOL    HW254260   4.727   7.090  -0.030 -0.2042 -0.0165  0.5792
17607SOL     OW54261   4.458   7.202   1.571  0.1935 -0.7204  0.1658
17607SOL    HW154262   4.414   7.150   1.503  0.0301  1.3607 -1.3948
17607SOL    HW254263   4.551   7.183   1.558  0.0591 -1.7053  0.5580
17608SOL     OW54264   3.789   7.491  12.360  0.3202  0.0890 -0.1148
17608SOL    HW154265   3.828   7.577  12.376 -0.2621  0.4752 -0.7040
17608SOL    HW254266   3.849   7.429  12.401 -0.2702  0.8946  2.1003
17609SOL     OW54267   4.668   0.320   0.791 -0.0716  0.3289 -0.2182
17609SOL    HW154268   4.735   0.261   0.823  0.2196  0.8646  0.1826
17609SOL    HW254269   4.701   0.408   0.811 -0.4878  0.6338 -0.8069
17610SOL     OW54270   3.937   0.447  11.254  0.0439  0.2592 -0.5419
17610SOL    HW154271   3.905   0.441  11.344 -2.8442 -1.2339 -1.5729
17610SOL    HW254272   4.005   0.380  11.249  0.4550  0.5610  0.5855
17611SOL     OW54273   4.942   7.165  11.903  0.3144 -0.4694 -0.1971
17611SOL    HW154274   4.987   7.230  11.849  0.8658  0.0621  0.8684
17611SOL    HW254275   4.850   7.193  11.902  0.2284 -0.7632 -1.2656
17612SOL     OW54276   3.740   0.166   0.691 -0.5655 -0.6080 -0.3671
17612SOL    HW154277   3.715   0.129   0.606  0.6768 -1.4047 -0.4129
17612SOL    HW254278   3.781   0.093   0.737  1.0350  0.4609 -0.0531
17613SOL     OW54279   4.324   7.344  11.611 -0.2141  0.2496 -0.2512
17613SOL    HW154280   4.248   7.386  11.572 -1.4877 -0.6703  1.1396
17613SOL    HW254281   4.323   7.372  11.703 -0.1876 -1.5160  0.3296
17614SOL     OW54282   4.000   0.094  12.219 -0.5159 -0.3163 -0.2144
17614SOL    HW154283   4.064   0.111  12.150 -0.7181  2.5048  0.1950
17614SOL    HW254284   4.040   0.128  12.299 -2.8637  2.6416 -0.1397
17615SOL     OW54285   4.572   0.855  12.082 -0.3545 -0.7432  0.1381
17615SOL    HW154286   4.556   0.899  12.165 -0.9775  0.2468 -0.4875
17615SOL    HW254287   4.508   0.783  12.081 -0.2963 -0.8027  0.5357
17616SOL     OW54288   1.941   1.320  12.183 -0.6396 -0.5492  0.3118
17616SOL    HW154289   1.958   1.413  12.166 -0.4439 -0.3997  1.2883
17616SOL    HW254290   1.890   1.291  12.107  1.0786 -0.1752 -1.0417
17617SOL     OW54291   7.745   5.654   0.230 -0.0968  0.6947  0.3506
17617SOL    HW154292   7.712   5.674   0.143 -0.6415 -1.8774 -0.1239
17617SOL    HW254293   7.835   5.689   0.230  1.0122 -1.7068 -2.3911
17618SOL     OW54294   5.120   7.357  10.683 -0.2224 -0.3440 -0.5023
17618SOL    HW154295   5.032   7.356  10.721 -0.1566  0.2272 -0.3280
17618SOL    HW254296   5.179   7.364  10.758 -0.0191 -0.8472 -0.6104
17619SOL     OW54297   4.623   7.274   9.815  0.4754  0.1407  0.1746
17619SOL    HW154298   4.611   7.366   9.793 -0.3331  0.7499  2.8274
17619SOL    HW254299   4.715   7.256   9.792  0.1752  1.0642 -1.9604
17620SOL     OW54300   2.212   0.021   0.564  0.4783 -0.0335  0.2773
17620SOL    HW154301   2.307   0.029   0.572  0.5106  0.0681 -0.2020
17620SOL    HW254302   2.197  -0.067   0.531  0.3803 -0.2076  0.7802
17621SOL     OW54303   4.892   6.725   0.348  0.0378 -0.5525 -0.3607
17621SOL    HW154304   4.885   6.630   0.339  0.3403 -0.5778 -0.3566
17621SOL    HW254305   4.932   6.753   0.266  2.5689 -0.7514  0.7077
17622SOL     OW54306   2.802   0.341   0.277  0.0421  0.1097 -0.4699
17622SOL    HW154307   2.887   0.339   0.321 -0.2395 -1.3224  0.0894
17622SOL    HW254308   2.816   0.397   0.201  1.4456  0.0539 -0.2944
17623SOL     OW54309   6.593   6.794  12.242 -0.3037  0.5052  0.5718
17623SOL    HW154310   6.535   6.723  12.212  1.8399 -0.5768 -1.3305
17623SOL    HW254311   6.619   6.768  12.330 -0.2403 -0.6323  0.2392
17624SOL     OW54312   4.765   7.402   0.068  0.5986 -0.2122  0.3120
17624SOL    HW154313   4.857   7.398   0.046  1.0228 -0.6241  1.9832
17624SOL    HW254314   4.739   7.311   0.082 -0.6980 -0.3410 -2.3781
17625SOL     OW54315   3.728   0.482  12.271 -0.0548  0.5891 -0.5254
17625SOL    HW154316   3.679   0.516  12.196 -0.5991  0.0958 -0.4058
17625SOL    HW254317   3.744   0.390  12.249  0.2864  0.5914 -0.2908
17626SOL     OW54318   4.898   0.439  11.979 -0.3281 -0.7035 -0.3455
17626SOL    HW154319   4.844   0.414  11.904 -0.7086 -0.9249 -0.0026
17626SOL    HW254320   4.862   0.523  12.007  0.3692 -0.1858 -0.9352
17627SOL     OW54321   5.519   7.999  12.246 -0.1888  0.2123  0.7899
17627SOL    HW154322   5.480   7.934  12.188 -0.1454 -0.0875  1.0965
17627SOL    HW254323   5.481   8.082  12.217 -1.7792 -0.1559  1.6367
17628SOL     OW54324   3.710   6.648  11.978 -0.1897  0.2820  0.2161
17628SOL    HW154325   3.712   6.561  12.019 -0.3026  0.3059  0.2730
17628SOL    HW254326   3.647   6.638  11.906  2.5134 -0.7516 -2.1847
17629SOL     OW54327   5.372   7.823  12.095 -0.0276  0.5523  0.3898
17629SOL    HW154328   5.281   7.800  12.113  0.1602 -0.4930  0.0681
17629SOL    HW254329   5.366   7.898  12.036 -0.6641  1.1238  1.1573
17630SOL     OW54330   5.157   0.075  11.935  0.1173 -0.5986  0.4096
17630SOL    HW154331   5.139   0.143  11.870  2.4378  0.0458  0.3885
17630SOL    HW254332   5.116   0.106  12.015 -2.0033 -0.9749 -0.4519
17631SOL     OW54333   3.173   7.922  11.911  0.1257  0.4381  0.0915
17631SOL    HW154334   3.193   7.910  11.818 -0.6367 -1.5070  0.1468
17631SOL    HW254335   3.079   7.937  11.913  0.4102  2.4710  0.4300
17632SOL     OW54336   2.155   6.746  10.655  0.0801  0.2522 -0.6184
17632SOL    HW154337   2.094   6.716  10.722 -0.0258 -2.5790 -1.8261
17632SOL    HW254338   2.169   6.839  10.674 -1.2936 -0.0242  2.2081
17633SOL     OW54339   4.432   7.959  12.180  0.1833  0.3696  0.4673
17633SOL    HW154340   4.475   8.024  12.235 -1.0742  1.3624  0.3014
17633SOL    HW254341   4.419   8.003  12.096 -3.0364  0.9053  1.1211
17634SOL     OW54342   4.576   0.194  12.235 -0.2244 -0.5107  0.1450
17634SOL    HW154343   4.521   0.244  12.296  0.9433  0.2146  0.6393
17634SOL    HW254344   4.620   0.261  12.182  0.7274 -1.0328  0.2535
17635SOL     OW54345   3.031   7.059  11.764  0.3922 -0.4137 -0.3847
17635SOL    HW154346   3.070   7.112  11.833 -1.7412  0.0007  0.5715
17635SOL    HW254347   2.937   7.073  11.772 -0.1626 -2.9984 -1.2034
17636SOL     OW54348   2.648   7.323  11.896  0.4093 -0.7859  0.0102
17636SOL    HW154349   2.740   7.297  11.904  0.5850  0.0816  1.0538
17636SOL    HW254350   2.649   7.418  11.907 -0.1543 -0.1233 -4.1131
17637SOL     OW54351   5.062   6.695  11.849 -0.3253 -0.3000 -0.5514
17637SOL    HW154352   4.974   6.694  11.885 -0.9410  1.6132 -1.8948
17637SOL    HW254353   5.063   6.624  11.785  0.0264 -2.1087  1.3401
17638SOL     OW54354   4.306   6.141  12.301 -0.3966 -0.4217  0.0975
17638SOL    HW154355   4.230   6.084  12.313 -1.5665  0.8631 -0.9423
17638SOL    HW254356   4.272   6.229  12.317  1.5581  0.0050  2.5305
17639SOL     OW54357   2.923   6.637  11.424  0.5506 -0.5816  0.0885
17639SOL    HW154358   2.882   6.570  11.368 -0.5548  0.3807 -0.2848
17639SOL    HW254359   2.964   6.587  11.494 -0.3126 -1.6565 -0.1377
17640SOL     OW54360   4.579   1.072  10.671  0.6192  0.3772  0.1949
17640SOL    HW154361   4.493   1.040  10.644  0.1957  0.4410  1.4420
17640SOL    HW254362   4.639   1.033  10.607 -0.0206 -1.8214  0.8465
17641SOL     OW54363   3.792   6.671   0.423 -0.0695 -0.5304  0.1896
17641SOL    HW154364   3.773   6.584   0.389 -0.6395 -0.3899  0.1319
17641SOL    HW254365   3.737   6.730   0.371 -1.9463 -0.4245  2.1556
17642SOL     OW54366   6.706   0.821  11.097  0.5094  0.1800 -0.2997
17642SOL    HW154367   6.704   0.908  11.058  1.0006 -0.1660 -1.1190
17642SOL    HW254368   6.663   0.831  11.182 -0.6138  0.9265 -0.9494
17643SOL     OW54369   5.582   0.865   0.727  0.2287  0.6106 -0.2638
17643SOL    HW154370   5.643   0.799   0.694  1.4324 -0.3010  3.2984
17643SOL    HW254371   5.496   0.828   0.710  0.8350 -0.8469 -0.3512
17644SOL     OW54372   6.876   0.110  11.035 -0.6348  0.6425 -0.3921
17644SOL    HW154373   6.939   0.096  10.964 -1.3460 -0.9576 -0.7473
17644SOL    HW254374   6.827   0.187  11.007 -0.8247  0.1079 -1.6095
17645SOL     OW54375   4.613   1.528   0.467 -0.0979  0.4567 -0.3754
17645SOL    HW154376   4.528   1.564   0.492  0.2923  1.7986 -0.9053
17645SOL    HW254377   4.613   1.531   0.371  1.2162  2.1963 -0.3804
17646SOL     OW54378   7.461   1.282   1.754  0.1410  0.6427  0.4327
17646SOL    HW154379   7.400   1.308   1.685 -0.4634 -0.3987  0.5468
17646SOL    HW254380   7.547   1.302   1.719 -0.1936  0.7256 -0.3591
17647SOL     OW54381   7.813   7.143   0.250  0.1548  0.1352 -0.0169
17647SOL    HW154382   7.738   7.142   0.192 -0.2730 -0.1066  0.5265
17647SOL    HW254383   7.884   7.181   0.198 -0.6929  1.6818 -0.0978
17648SOL     OW54384   0.831   0.147   0.273  0.2554 -0.3386  0.2931
17648SOL    HW154385   0.878   0.152   0.356  1.4960  1.2716 -0.4642
17648SOL    HW254386   0.807   0.054   0.265  1.8961 -0.9143  1.4620
17649SOL     OW54387   5.580   1.031   1.223 -0.0226  0.8252 -0.2906
17649SOL    HW154388   5.621   1.117   1.227 -1.2510  1.3883  0.5308
17649SOL    HW254389   5.592   1.003   1.132  1.0625  1.5030 -0.3754
17650SOL     OW54390   6.063   1.605   2.457  0.2839 -0.6016  0.2282
17650SOL    HW154391   6.062   1.510   2.441  0.2925 -0.8130  1.4104
17650SOL    HW254392   5.976   1.624   2.493 -0.1342  0.0508 -1.0466
17651SOL     OW54393   0.143   7.690   1.257  0.2570  0.1002 -0.1330
17651SOL    HW154394   0.214   7.754   1.256  0.4950 -0.1631 -0.0366
17651SOL    HW254395   0.076   7.728   1.200  1.1378 -0.4244 -1.5525
17652SOL     OW54396   7.360   0.368   0.661 -0.3984 -0.2658  0.2556
17652SOL    HW154397   7.301   0.399   0.593  0.7146  0.1359 -0.5543
17652SOL    HW254398   7.302   0.347   0.735 -1.7995 -2.0443 -1.2460
17653SOL     OW54399   6.812   3.052   1.995 -0.4295 -0.2322 -0.5653
17653SOL    HW154400   6.786   2.984   1.933 -0.0608  0.2535 -1.2604
17653SOL    HW254401   6.759   3.128   1.970 -0.6434 -0.1820  0.0365
17654SOL     OW54402   6.477   0.191   3.020 -0.0515  0.1409  0.3076
17654SOL    HW154403   6.492   0.216   2.929  0.1199  0.3221  0.3841
17654SOL    HW254404   6.538   0.119   3.036  0.4425  0.5898  0.4904
17655SOL     OW54405   6.685   0.855   0.707 -0.8335  0.1298  0.0721
17655SOL    HW154406   6.689   0.823   0.797  0.1618 -2.3494 -0.7776
17655SOL    HW254407   6.625   0.930   0.711 -2.0851 -0.8854  2.5075
17656SOL     OW54408   7.341   2.881   0.469 -0.3005  0.6394 -0.4105
17656SOL    HW154409   7.368   2.822   0.399 -0.8429 -0.9687  0.6697
17656SOL    HW254410   7.247   2.893   0.456 -0.4822  0.0097  0.2405
17657SOL     OW54411   7.399   1.767   0.750 -0.0837  0.1954 -0.0007
17657SOL    HW154412   7.341   1.755   0.825  0.1094  1.3488  0.3519
17657SOL    HW254413   7.401   1.862   0.736  1.1722  0.1211 -0.4320
17658SOL     OW54414   5.235   1.527   0.785  0.3660 -0.0021 -0.3434
17658SOL    HW154415   5.312   1.583   0.794 -1.6441  2.8400  0.5706
17658SOL    HW254416   5.243   1.464   0.857  0.8742  1.5729  1.0605
17659SOL     OW54417   5.615   1.498   3.358 -0.2343 -0.0174 -0.5393
17659SOL    HW154418   5.644   1.418   3.402 -0.2366 -0.2231 -0.9061
17659SOL    HW254419   5.597   1.559   3.429 -2.6458 -1.1262 -0.0845
17660SOL     OW54420   5.262   3.059   2.489  0.5726  0.0501 -0.8008
17660SOL    HW154421   5.339   3.063   2.433  0.3685 -0.8569 -1.1663
17660SOL    HW254422   5.268   2.974   2.532 -0.3124 -0.1134 -0.9696
17661SOL     OW54423   5.315   0.996   9.862 -0.2690  0.1243  0.2333
17661SOL    HW154424   5.289   0.966   9.775 -0.1002 -0.7544  0.4771
17661SOL    HW254425   5.410   0.990   9.863 -0.2407  0.5335  0.3435
17662SOL     OW54426   0.993   7.713   2.563 -0.3257 -0.1535  0.3665
17662SOL    HW154427   0.986   7.740   2.472  0.0032  1.9864  0.9161
17662SOL    HW254428   0.961   7.788   2.613  0.8122 -0.7178  2.0402
17663SOL     OW54429   5.872   7.401   1.581 -0.0193  0.5658 -0.2252
17663SOL    HW154430   5.901   7.492   1.572  0.8249  0.4186  0.8643
17663SOL    HW254431   5.782   7.402   1.549  0.0833  1.7253 -0.5247
17664SOL     OW54432   7.059   7.879   0.424 -0.2761  0.4233 -0.8159
17664SOL    HW154433   6.984   7.876   0.483  0.2008  0.2867 -0.2171
17664SOL    HW254434   7.096   7.966   0.436  0.4181  0.0392 -0.1716
17665SOL     OW54435   6.135   2.181   0.535  0.3704  0.3630 -0.0457
17665SOL    HW154436   6.125   2.117   0.605 -0.5179 -0.5019 -0.9335
17665SOL    HW254437   6.053   2.231   0.536 -0.0301 -0.2410 -1.0173
17666SOL     OW54438   7.144   1.049   2.267  0.4543  0.6510 -0.3239
17666SOL    HW154439   7.153   1.105   2.344  0.7077 -0.1075  0.2122
17666SOL    HW254440   7.228   1.001   2.262 -0.2374 -0.6626  0.0387
17667SOL     OW54441   7.973   7.780   0.753  0.1621 -0.0211 -0.3158
17667SOL    HW154442   7.906   7.814   0.812  0.7907  0.3038  0.2242
17667SOL    HW254443   8.012   7.707   0.800  2.1851  1.6090  0.6710
17668SOL     OW54444   6.622   7.537   2.843 -0.3805  0.3193 -0.2899
17668SOL    HW154445   6.654   7.468   2.786  0.9572  1.7080 -1.3031
17668SOL    HW254446   6.537   7.562   2.807 -1.2700 -1.2967  0.5768
17669SOL     OW54447   7.717   1.987  12.127  0.0552 -0.2784 -0.0116
17669SOL    HW154448   7.692   1.894  12.124 -0.3206 -0.1844  0.1769
17669SOL    HW254449   7.782   1.992  12.197 -0.9319 -0.1729  0.9405
17670SOL     OW54450   6.166   0.266   0.804  0.2338 -0.1982 -0.6628
17670SOL    HW154451   6.087   0.246   0.855  0.2999 -4.3705 -1.8282
17670SOL    HW254452   6.224   0.192   0.820  2.9456  1.5245 -1.8255
17671SOL     OW54453   7.198   0.059  12.356  0.5860 -0.7208 -0.1228
17671SOL    HW154454   7.162  -0.003  12.420  0.6391 -0.7591 -0.1300
17671SOL    HW254455   7.164   0.029  12.272 -1.1093  0.4705  0.0745
17672SOL     OW54456   6.138   7.763   1.681 -0.6801  0.3342  0.1984
17672SOL    HW154457   6.170   7.722   1.761 -2.4448  0.0807  0.8242
17672SOL    HW254458   6.197   7.836   1.666  1.2422 -1.1324  0.2625
17673SOL     OW54459   6.432   1.780   1.143 -0.5342  0.6773 -0.7697
17673SOL    HW154460   6.460   1.717   1.077 -0.3885  1.7569 -1.7721
17673SOL    HW254461   6.512   1.802   1.191 -0.7367 -0.5104  0.1412
17674SOL     OW54462   6.057   1.319   2.407 -0.0853 -0.4762  0.3002
17674SOL    HW154463   6.146   1.299   2.438  0.1897 -0.8066 -0.6896
17674SOL    HW254464   6.037   1.250   2.344 -0.3924  0.5178 -0.7234
17675SOL     OW54465   5.380   1.442   1.340  0.1136 -0.3781 -1.0453
17675SOL    HW154466   5.328   1.490   1.404 -1.5466 -0.7237 -2.0891
17675SOL    HW254467   5.462   1.491   1.334  0.6398 -0.7171  1.8075
17676SOL     OW54468   6.600   2.390   2.309  0.1545 -0.3291  0.2453
17676SOL    HW154469   6.527   2.408   2.250  1.0531  1.2387 -0.4418
17676SOL    HW254470   6.649   2.472   2.313  0.3685 -0.4800  2.8620
17677SOL     OW54471   7.927   1.884  11.922 -0.0663 -0.2596  0.1138
17677SOL    HW154472   8.019   1.896  11.946  0.0150 -3.0215  1.5853
17677SOL    HW254473   7.928   1.877  11.826  0.8574  2.0574 -0.1124
17678SOL     OW54474   6.907   0.154  11.990 -0.2975  0.0255  0.1539
17678SOL    HW154475   6.964   0.181  12.063  1.9742 -1.5819 -0.8829
17678SOL    HW254476   6.884   0.064  12.011 -0.6871 -0.0275 -0.4892
17679SOL     OW54477   6.199   0.762   0.610  0.1451  0.5292 -0.5313
17679SOL    HW154478   6.183   0.670   0.630  1.1612  0.0048 -1.9575
17679SOL    HW254479   6.271   0.760   0.547 -1.2391  2.1703 -2.2716
17680SOL     OW54480   0.052   1.068   0.761 -0.9110 -0.0194 -0.1460
17680SOL    HW154481   0.031   1.066   0.668  0.5016 -1.6275 -0.4820
17680SOL    HW254482   0.018   1.152   0.792  1.1024  1.9025 -2.6991
17681SOL     OW54483   6.568   7.738   3.290  0.5864 -0.0282 -0.4869
17681SOL    HW154484   6.611   7.654   3.302 -1.2960 -1.0064 -0.2135
17681SOL    HW254485   6.496   7.738   3.353  0.3475  1.6617 -0.7027
17682SOL     OW54486   5.874   1.186   2.209 -0.0023 -0.2723  0.3274
17682SOL    HW154487   5.886   1.198   2.115  0.1014  1.3398  0.5109
17682SOL    HW254488   5.814   1.112   2.217 -1.2779  0.5782 -1.0590
17683SOL     OW54489   6.586   0.604   1.716 -0.6856  0.1197  1.0612
17683SOL    HW154490   6.495   0.629   1.700 -0.4782  0.2467 -0.0172
17683SOL    HW254491   6.633   0.687   1.721 -0.4823  0.0300  0.6486
17684SOL     OW54492   6.469   1.553   1.017 -0.2249 -0.1496  0.2984
17684SOL    HW154493   6.504   1.491   0.954 -0.6922  0.0961 -0.2020
17684SOL    HW254494   6.537   1.557   1.085  0.2869 -0.4059 -0.1835
17685SOL     OW54495   5.520   0.090  11.440 -0.0684 -0.1369 -0.3860
17685SOL    HW154496   5.495   0.048  11.523 -0.7591  0.3571 -0.3356
17685SOL    HW254497   5.525   0.183  11.461 -2.9652  0.3763 -1.4630
17686SOL     OW54498   4.558   0.091   0.074  0.1196 -0.5141 -0.1183
17686SOL    HW154499   4.653   0.107   0.077  0.3222 -1.5892  3.1274
17686SOL    HW254500   4.522   0.172   0.038  2.1036  1.2521  1.5332
17687SOL     OW54501   4.289   2.920   2.005 -0.2389  0.2846  0.0383
17687SOL    HW154502   4.287   2.885   1.916 -1.1892  1.2961 -0.3561
17687SOL    HW254503   4.362   2.874   2.047  0.0130 -0.4469 -1.1510
17688SOL     OW54504   6.362   7.589   1.118 -0.4965 -0.0310  0.0565
17688SOL    HW154505   6.360   7.559   1.027 -0.7581  1.3524 -0.4156
17688SOL    HW254506   6.272   7.580   1.149 -1.4799  3.6264 -1.2818
17689SOL     OW54507   7.945   0.316   3.287  0.0124  0.0088 -0.2701
17689SOL    HW154508   8.035   0.349   3.284  0.1299 -0.2146  0.6779
17689SOL    HW254509   7.891   0.394   3.288  0.3156  0.3483  3.4743
17690SOL     OW54510   0.354   0.995   0.600  0.0067  0.0588 -0.4393
17690SOL    HW154511   0.331   0.931   0.668 -1.6109  0.1826 -0.8329
17690SOL    HW254512   0.362   1.078   0.646 -0.9207  0.1113 -0.3580
17691SOL     OW54513   5.827   1.333   0.857 -0.1808 -0.1736  0.2569
17691SOL    HW154514   5.864   1.313   0.943  0.3192  0.1473  0.1181
17691SOL    HW254515   5.867   1.269   0.798  0.0627  0.0895  0.1313
17692SOL     OW54516   7.049   7.757  12.318  0.4137  0.0081 -0.1699
17692SOL    HW154517   6.963   7.715  12.314 -0.1869  1.1183  0.5045
17692SOL    HW254518   7.071   7.757  12.411  0.5492  0.8904 -0.1983
17693SOL     OW54519   6.772   0.798   1.357 -0.2513  0.0535  0.4740
17693SOL    HW154520   6.696   0.746   1.333  0.9075 -1.3421 -0.3405
17693SOL    HW254521   6.759   0.882   1.313 -1.4293 -0.0599  0.5771
17694SOL     OW54522   0.733   0.853   0.190  0.1866 -0.0560 -0.0314
17694SOL    HW154523   0.821   0.885   0.173  0.5412 -1.7700 -1.7184
17694SOL    HW254524   0.740   0.804   0.272  1.1291 -1.2903 -0.8227
17695SOL     OW54525   7.004   2.129   0.413 -0.2566 -0.3646 -0.0974
17695SOL    HW154526   6.931   2.181   0.449  0.2760  1.5748 -1.6089
17695SOL    HW254527   6.963   2.073   0.347 -0.7513 -1.4180  1.0761
17696SOL     OW54528   4.890   1.855  12.082 -0.2291  0.0100 -0.0443
17696SOL    HW154529   4.965   1.831  12.027  0.2737  1.8191 -0.2240
17696SOL    HW254530   4.920   1.839  12.171  0.6431  1.3070 -0.0779
17697SOL     OW54531   7.721   0.947   0.214  0.0611  0.2443  0.6403
17697SOL    HW154532   7.687   0.883   0.152  1.0052  0.0954  0.2478
17697SOL    HW254533   7.648   0.967   0.273  0.0586 -2.0503  1.4898
17698SOL     OW54534   4.911   0.968   1.887  0.2099  0.3050 -0.3645
17698SOL    HW154535   4.933   0.930   1.802 -1.2938  0.1538 -0.7176
17698SOL    HW254536   4.934   1.061   1.878  1.0877  0.0826 -0.5383
17699SOL     OW54537   7.007   2.474   0.629  0.0982 -0.0419 -0.4861
17699SOL    HW154538   7.088   2.445   0.588  0.7482  1.9549 -0.7441
17699SOL    HW254539   6.976   2.398   0.678  1.7074 -1.0868 -1.0040
17700SOL     OW54540   4.602   1.900   0.676 -0.0531 -0.3083  0.3120
17700SOL    HW154541   4.621   1.946   0.758 -0.6415 -0.2043  0.3929
17700SOL    HW254542   4.607   1.807   0.700 -0.0281 -0.2790  0.4221
17701SOL     OW54543   7.705   1.017  10.962  0.2301 -0.3444 -0.2195
17701SOL    HW154544   7.701   0.951  10.893  2.4805 -0.2953 -0.4426
17701SOL    HW254545   7.670   1.096  10.921 -2.2053 -1.2271 -0.0391
17702SOL     OW54546   0.598   3.252  11.932  0.5184  0.4617 -0.5580
17702SOL    HW154547   0.683   3.277  11.968  1.7124 -1.6051 -1.7267
17702SOL    HW254548   0.562   3.332  11.895  2.5077  1.1783 -1.0574
17703SOL     OW54549   7.144   1.053  10.543  0.0685  0.4841  0.8371
17703SOL    HW154550   7.154   1.043  10.638 -0.9669 -0.0357  0.9077
17703SOL    HW254551   7.192   1.132  10.522  0.5707  0.4363  1.7531
17704SOL     OW54552   6.401   0.371   1.032  0.3662 -0.1531 -0.4020
17704SOL    HW154553   6.478   0.406   0.987 -0.7794 -0.5025 -2.7929
17704SOL    HW254554   6.327   0.395   0.976 -1.4286  0.7455  2.1228
17705SOL     OW54555   5.237   7.724  12.424  0.3218  0.1950 -0.0198
17705SOL    HW154556   5.229   7.765  12.510 -0.5867 -0.3969  0.1925
17705SOL    HW254557   5.195   7.785  12.364 -2.4407 -1.0168  0.5072
17706SOL     OW54558   6.056   2.370   1.896 -0.3089 -0.0852 -0.3434
17706SOL    HW154559   6.013   2.410   1.820 -0.3991  0.5210  0.0224
17706SOL    HW254560   5.989   2.313   1.934 -0.9633  1.2021  0.4905
17707SOL     OW54561   6.267   6.898   2.191 -0.2817 -0.6226  0.0199
17707SOL    HW154562   6.194   6.846   2.223  0.4812 -1.5347  0.3463
17707SOL    HW254563   6.264   6.979   2.242 -2.0464  0.1185 -1.1463
17708SOL     OW54564   5.674   1.031  10.950  0.0642  0.4402  0.0907
17708SOL    HW154565   5.655   1.038  10.856  0.4221 -0.1847 -0.0370
17708SOL    HW254566   5.683   1.121  10.979  2.1335  0.6246 -0.9426
17709SOL     OW54567   6.939   0.317   0.382 -0.1222 -0.2829  0.2426
17709SOL    HW154568   6.865   0.370   0.351  0.3077  0.9765  1.2807
17709SOL    HW254569   6.982   0.287   0.302 -2.4371 -2.1279 -0.4367
17710SOL     OW54570   7.266   1.853   1.351 -0.1917  0.2779  0.7775
17710SOL    HW154571   7.284   1.945   1.329  1.9476  0.0210  1.2715
17710SOL    HW254572   7.335   1.804   1.306  1.9927 -0.6057  4.6470
17711SOL     OW54573   7.648   2.362   1.749 -0.5166  0.1697  0.1979
17711SOL    HW154574   7.696   2.418   1.688 -0.4253  0.2161  0.3100
17711SOL    HW254575   7.691   2.377   1.833 -1.4172  1.0660  0.5281
17712SOL     OW54576   6.519   1.862   0.053 -0.1253 -0.3467 -0.1326
17712SOL    HW154577   6.532   1.822   0.139 -1.4986  0.3985  0.4596
17712SOL    HW254578   6.512   1.788  -0.007 -1.0962 -0.9609  0.7056
17713SOL     OW54579   5.002   0.358   0.499  0.0644 -0.3335  0.2973
17713SOL    HW154580   5.084   0.359   0.450  0.2904 -1.1556  0.6394
17713SOL    HW254581   5.005   0.438   0.551  0.3068  0.0129 -0.2414
17714SOL     OW54582   7.279   7.974   0.167 -0.1474 -0.3132 -0.1844
17714SOL    HW154583   7.300   8.060   0.131 -2.7534 -0.1286 -1.5222
17714SOL    HW254584   7.317   7.974   0.255 -1.1309  2.6938  0.3525
17715SOL     OW54585   6.155   0.795   0.079  0.7915 -0.1363 -0.8113
17715SOL    HW154586   6.128   0.789  -0.012  2.4652 -1.3962 -1.2624
17715SOL    HW254587   6.241   0.837   0.076  0.7627  0.0243  0.2089
17716SOL     OW54588   5.515   0.473  11.958  0.1216  0.4405 -0.0142
17716SOL    HW154589   5.577   0.434  11.897  0.6240 -0.3310  0.9759
17716SOL    HW254590   5.440   0.497  11.903  1.0090  0.7953 -1.1116
17717SOL     OW54591   7.344   0.276   1.507  0.4144  0.3955  0.1574
17717SOL    HW154592   7.296   0.356   1.486  1.2632  1.0501  0.6413
17717SOL    HW254593   7.401   0.301   1.579 -1.3725 -1.3732  2.3477
17718SOL     OW54594   6.105   2.783   2.642 -0.2698  0.5403  0.1294
17718SOL    HW154595   6.151   2.863   2.667  0.9771 -0.4357  1.1132
17718SOL    HW254596   6.173   2.716   2.640 -1.2727 -0.4887 -0.7403
17719SOL     OW54597   5.224   1.229   1.280 -0.8756 -0.4586 -0.4992
17719SOL    HW154598   5.293   1.170   1.249 -0.3887 -0.5273  0.6869
17719SOL    HW254599   5.272   1.307   1.310 -1.3405 -0.3802  0.0392
17720SOL     OW54600   7.049   0.729   1.048  0.5922 -0.2482 -0.7232
17720SOL    HW154601   6.960   0.699   1.029 -0.7054  1.6713  1.7427
17720SOL    HW254602   7.085   0.662   1.107  0.6403 -0.7803 -1.3413
17721SOL     OW54603   5.087   2.039   0.415 -0.4020  0.2507  0.6040
17721SOL    HW154604   5.007   2.084   0.388 -1.7331 -3.1899 -1.8556
17721SOL    HW254605   5.116   1.992   0.337  3.4496  0.4081  1.7455
17722SOL     OW54606   5.735   0.545  12.386  0.2096  0.8381 -0.5750
17722SOL    HW154607   5.719   0.460  12.346  1.2352  0.4669 -0.2444
17722SOL    HW254608   5.650   0.573  12.420  0.1526 -0.8225  0.7875
17723SOL     OW54609   5.947   0.869   2.418 -0.4875 -0.4605 -0.5301
17723SOL    HW154610   6.018   0.924   2.385  1.0991 -1.7742  0.5162
17723SOL    HW254611   5.910   0.919   2.490 -0.4765  0.1517 -0.9438
17724SOL     OW54612   7.867   0.547  11.889 -0.0710  0.4579 -0.1711
17724SOL    HW154613   7.786   0.499  11.908 -0.1488 -0.2763 -2.1192
17724SOL    HW254614   7.838   0.623  11.838  0.4431  0.2243 -0.8201
17725SOL     OW54615   6.136   1.715   0.647  0.2389 -0.2904 -0.1689
17725SOL    HW154616   6.058   1.658   0.646  0.2286 -0.3204  0.9863
17725SOL    HW254617   6.209   1.655   0.654  0.2153 -0.1680  1.2903
17726SOL     OW54618   4.693   7.326   0.875 -0.4350  0.1759  0.5228
17726SOL    HW154619   4.678   7.239   0.839  0.9165 -0.5248  1.5397
17726SOL    HW254620   4.613   7.347   0.922 -1.2356  0.0200 -0.7274
17727SOL     OW54621   6.612   2.020   2.074  0.0108 -0.0049 -0.3678
17727SOL    HW154622   6.627   2.108   2.107 -0.9080  0.0907 -0.1851
17727SOL    HW254623   6.518   2.016   2.058  0.0877 -0.8551 -0.6561
17728SOL     OW54624   0.943   7.756   1.127  0.5412 -0.3237 -0.3112
17728SOL    HW154625   0.849   7.738   1.130  0.3162  0.8137 -0.1376
17728SOL    HW254626   0.963   7.796   1.212  1.5242 -2.0467  0.3161
17729SOL     OW54627   7.769   0.205  11.860 -0.1658  0.0202 -0.0799
17729SOL    HW154628   7.745   0.172  11.946  0.4464 -0.9105 -0.2554
17729SOL    HW254629   7.855   0.244  11.872 -0.2648  0.2724 -0.1799
17730SOL     OW54630   7.622   0.102   0.001  0.2261  0.5667  0.0237
17730SOL    HW154631   7.712   0.100   0.035  0.8700  1.6323 -1.5166
17730SOL    HW254632   7.622   0.039  -0.071 -0.7706 -0.7049  1.0816
17731SOL     OW54633   7.135   1.484   0.872 -0.4742  0.1689 -0.7858
17731SOL    HW154634   7.063   1.468   0.933  1.4109 -0.7396  1.3616
17731SOL    HW254635   7.184   1.557   0.911  1.3074 -1.0423 -0.5943
17732SOL     OW54636   6.977   1.036   0.746  0.3055 -0.2363 -0.7300
17732SOL    HW154637   6.994   1.128   0.725 -0.4161  0.5625  1.8298
17732SOL    HW254638   7.019   1.023   0.831 -2.1129 -1.3729  0.3857
17733SOL     OW54639   6.268   7.851  10.976  0.1541  0.0194  0.6250
17733SOL    HW154640   6.307   7.783  11.030 -0.2415  0.1608  1.0982
17733SOL    HW254641   6.264   7.814  10.888  0.4245 -0.3679  0.7788
17734SOL     OW54642   6.746   2.809   2.287 -0.3139 -0.1549  0.2686
17734SOL    HW154643   6.663   2.809   2.239 -0.6514  1.9670  0.7297
17734SOL    HW254644   6.790   2.729   2.259 -0.7680  0.6103 -3.1149
17735SOL     OW54645   6.248   1.041   1.343  0.1311 -0.3268  0.3412
17735SOL    HW154646   6.308   1.096   1.294 -0.1681  0.5674  0.9351
17735SOL    HW254647   6.302   1.001   1.411 -0.0875  1.3470  1.5802
17736SOL     OW54648   5.581   3.114   2.716  0.2697  0.1076  0.1394
17736SOL    HW154649   5.563   3.188   2.658 -2.6074  0.0334  0.7670
17736SOL    HW254650   5.555   3.037   2.665  0.7296 -0.2457  0.4300
17737SOL     OW54651   6.870   1.019   2.280  0.3221 -0.5991  0.3144
17737SOL    HW154652   6.882   1.102   2.326 -1.7250 -0.0790  0.0357
17737SOL    HW254653   6.958   0.992   2.255  0.9582  2.1430 -0.7173
17738SOL     OW54654   7.454   0.583   2.171 -0.6022  0.0211  0.5698
17738SOL    HW154655   7.368   0.596   2.132 -0.2934 -0.8203 -0.4340
17738SOL    HW254656   7.456   0.645   2.245 -2.3414 -0.4665  1.0850
17739SOL     OW54657   7.720   0.765   1.391  0.3806 -0.1945  0.4028
17739SOL    HW154658   7.806   0.763   1.349  0.1899 -0.9337  0.0187
17739SOL    HW254659   7.738   0.750   1.483  0.7146  0.3327  0.4275
17740SOL     OW54660   7.253   1.042   2.823 -0.0596 -0.1307 -0.1325
17740SOL    HW154661   7.285   1.029   2.912 -1.5413 -0.1672  0.4241
17740SOL    HW254662   7.204   1.124   2.827 -1.1638 -0.7375 -0.5950
17741SOL     OW54663   5.772   0.792   0.235 -0.0873  0.2294 -0.1542
17741SOL    HW154664   5.811   0.704   0.234  0.0500  0.2881 -0.5947
17741SOL    HW254665   5.775   0.818   0.326  1.3636  0.4147 -0.2217
17742SOL     OW54666   5.878   0.481   0.304 -0.5701  0.3876 -0.3290
17742SOL    HW154667   5.920   0.478   0.218 -0.6058 -0.5002 -0.3329
17742SOL    HW254668   5.790   0.447   0.289 -0.4273 -0.2163  0.1232
17743SOL     OW54669   5.960   0.330   1.394 -0.5427  0.3472  0.4411
17743SOL    HW154670   5.923   0.268   1.457  0.3983 -0.3892  0.2945
17743SOL    HW254671   6.011   0.275   1.333  0.0142  1.2246  0.0968
17744SOL     OW54672   6.950   1.484  12.268  0.6536  0.1939 -0.2908
17744SOL    HW154673   6.886   1.551  12.291  2.4303  0.8959  3.2271
17744SOL    HW254674   7.032   1.532  12.254  1.4156 -1.0397 -0.2221
17745SOL     OW54675   0.680   7.920   0.235  0.3858  0.0998  0.1610
17745SOL    HW154676   0.610   7.883   0.289 -0.5814  0.4173 -0.8282
17745SOL    HW254677   0.656   7.897   0.146  1.7089 -0.0186 -0.1835
17746SOL     OW54678   6.417   7.577   0.466 -0.0490  0.0370  0.2847
17746SOL    HW154679   6.457   7.639   0.405 -0.2832 -0.2923 -0.2070
17746SOL    HW254680   6.460   7.493   0.447 -0.8445 -0.2800 -0.1220
17747SOL     OW54681   0.088   1.432  12.440  0.0518 -0.1222 -0.1514
17747SOL    HW154682  -0.003   1.454  12.421 -0.3607 -0.4423  1.3584
17747SOL    HW254683   0.093   1.429  12.535  1.2365 -1.7877 -0.2213
17748SOL     OW54684   7.035   1.225  12.018 -0.0913  0.2944  0.0859
17748SOL    HW154685   6.960   1.226  12.078 -0.1835  0.8800 -0.0408
17748SOL    HW254686   7.028   1.305  11.967  1.9991  1.6977  1.8008
17749SOL     OW54687   7.456   1.564   2.172  0.0589  0.0412 -0.0711
17749SOL    HW154688   7.378   1.542   2.224  0.3314  0.3290  0.4769
17749SOL    HW254689   7.481   1.482   2.130  1.1696 -0.8147  2.0753
17750SOL     OW54690   5.058   0.565   2.921  0.1410 -0.5079 -0.0225
17750SOL    HW154691   5.015   0.625   2.981 -0.1771 -0.1716 -0.5813
17750SOL    HW254692   5.067   0.614   2.840  2.0569 -0.3710  0.2178
17751SOL     OW54693   7.106   1.417   2.588 -0.7276 -0.1904 -0.4367
17751SOL    HW154694   7.097   1.374   2.673  1.6842 -0.7514 -0.3883
17751SOL    HW254695   7.134   1.506   2.610 -2.7153  0.5486 -0.6355
17752SOL     OW54696   6.222   0.146   2.245  0.1893 -0.1138  0.1228
17752SOL    HW154697   6.278   0.069   2.237 -1.1518 -0.9618 -1.7660
17752SOL    HW254698   6.244   0.201   2.170 -1.4130 -0.4460 -0.6408
17753SOL     OW54699   6.088   0.457   1.633  0.2492 -0.5101 -0.1002
17753SOL    HW154700   6.135   0.540   1.622 -1.0662  0.3587  0.5851
17753SOL    HW254701   6.063   0.431   1.545 -3.7762  2.5398 -0.1445
17754SOL     OW54702   6.038   1.104   1.918  0.3801 -0.0724 -0.1176
17754SOL    HW154703   5.959   1.051   1.908  0.9083 -1.2361  1.4323
17754SOL    HW254704   6.019   1.185   1.872 -2.3390  0.3429  1.5536
17755SOL     OW54705   6.565   1.489   1.857  0.2846  0.8369 -0.0190
17755SOL    HW154706   6.489   1.437   1.883  1.2686 -1.0263 -0.6440
17755SOL    HW254707   6.599   1.525   1.939  0.3199 -0.6507  0.6617
17756SOL     OW54708   5.900   0.752   0.727 -0.0933 -0.2026 -0.4400
17756SOL    HW154709   5.897   0.766   0.821  0.1966 -1.9115 -0.1382
17756SOL    HW254710   5.993   0.760   0.704 -0.1896  0.4406 -0.6386
17757SOL     OW54711   7.927   0.418  11.544  0.2063  0.2205 -0.0743
17757SOL    HW154712   7.858   0.470  11.503 -0.2439 -0.3451 -0.0544
17757SOL    HW254713   8.007   0.442  11.498  0.0994  1.3308  0.2972
17758SOL     OW54714   3.854   1.050  12.021  0.5004 -0.3326 -0.4427
17758SOL    HW154715   3.760   1.060  12.006  0.3908  2.1065  1.3326
17758SOL    HW254716   3.886   1.005  11.942 -1.9936 -0.5083 -1.4478
17759SOL     OW54717   5.085   1.859   2.040 -0.1009 -0.3079  0.5167
17759SOL    HW154718   5.159   1.802   2.064  1.1782  1.6555  1.4621
17759SOL    HW254719   5.016   1.835   2.101 -0.4542 -2.4194 -0.6013
17760SOL     OW54720   7.832   7.918   1.847 -0.7318  0.0645 -0.5835
17760SOL    HW154721   7.807   7.912   1.939 -0.2234  0.8046 -0.3871
17760SOL    HW254722   7.886   7.997   1.842  2.5197 -1.9700 -0.7281
17761SOL     OW54723   6.156   0.563   1.179  0.1924 -0.0312  0.0553
17761SOL    HW154724   6.184   0.653   1.160 -0.0939  0.3691  1.4228
17761SOL    HW254725   6.223   0.529   1.238 -1.5331  0.5675  2.4873
17762SOL     OW54726   4.974   7.021   0.208 -0.1440  0.5165 -0.0688
17762SOL    HW154727   5.056   6.978   0.184 -0.7814  0.5094 -2.5556
17762SOL    HW254728   5.000   7.109   0.234  0.7162  0.2999 -0.1466
17763SOL     OW54729   7.888   1.338   0.542 -0.6483  0.5743  0.3102
17763SOL    HW154730   7.816   1.354   0.603  1.2769  0.2844  2.8135
17763SOL    HW254731   7.922   1.426   0.521 -1.1518  0.6572 -0.1906
17764SOL     OW54732   6.402   0.099   0.828 -0.4512 -0.6038 -0.6052
17764SOL    HW154733   6.437   0.135   0.746 -0.4715 -0.8414 -0.7175
17764SOL    HW254734   6.321   0.055   0.802 -2.4123  2.2932  0.0073
17765SOL     OW54735   6.540   3.215  10.805 -0.1038 -0.3082 -0.0350
17765SOL    HW154736   6.618   3.161  10.813  0.3824  0.3776 -0.0301
17765SOL    HW254737   6.545   3.275  10.880 -0.3993  0.0294 -0.2823
17766SOL     OW54738   7.421   2.535   1.784 -0.1555  0.9881 -0.5341
17766SOL    HW154739   7.402   2.609   1.840  1.3013  0.7841  0.2751
17766SOL    HW254740   7.513   2.546   1.758  0.0851 -0.4794 -0.4392
17767SOL     OW54741   5.727   7.069   1.526  0.0542  1.0486 -0.4316
17767SOL    HW154742   5.751   7.030   1.611 -2.6380 -0.2276 -0.1702
17767SOL    HW254743   5.725   7.163   1.543  1.1834  0.9422  0.4448
17768SOL     OW54744   6.441   0.600   0.845 -0.5827 -0.5552  0.4005
17768SOL    HW154745   6.346   0.604   0.830 -0.7674 -2.4280  0.9204
17768SOL    HW254746   6.456   0.660   0.918 -1.5609 -1.1639  1.1297
17769SOL     OW54747   7.840   7.856  12.142  0.0481  0.4048 -0.3294
17769SOL    HW154748   7.918   7.910  12.133 -0.3244  0.9903 -0.0726
17769SOL    HW254749   7.826   7.820  12.054  0.4444  0.5122 -0.4403
17770SOL     OW54750   7.233   1.045   1.264  0.2292 -0.0550 -0.1334
17770SOL    HW154751   7.181   1.074   1.339 -0.1573  0.8679 -0.7339
17770SOL    HW254752   7.292   0.979   1.299  0.6476  0.9724  1.1551
17771SOL     OW54753   6.946   1.235   1.357 -0.1988  0.2219  0.2786
17771SOL    HW154754   6.952   1.330   1.367 -2.0580  0.3378  0.7898
17771SOL    HW254755   6.983   1.201   1.438  0.4792  0.5136  0.0927
17772SOL     OW54756   5.875   0.452  11.988 -0.5087  0.8052 -0.0537
17772SOL    HW154757   5.967   0.426  11.997 -0.5891  0.4211 -0.3199
17772SOL    HW254758   5.833   0.421  12.068  0.0110  2.8884  1.0946
17773SOL     OW54759   6.898   0.652   1.613  0.0589 -1.0831  0.2602
17773SOL    HW154760   6.862   0.722   1.667  2.0417  0.0726  0.1651
17773SOL    HW254761   6.894   0.685   1.524  0.6111 -1.2668  0.1639
17774SOL     OW54762   6.355   7.963   2.676  0.4215  0.5195 -0.5645
17774SOL    HW154763   6.277   8.018   2.680 -0.8236 -1.2846  0.8846
17774SOL    HW254764   6.426   8.021   2.706 -0.7667  1.4666  0.5085
17775SOL     OW54765   4.131   0.150   0.501  0.0114  0.1054 -0.4873
17775SOL    HW154766   4.154   0.136   0.592 -0.5687  0.4795 -0.2735
17775SOL    HW254767   4.214   0.143   0.453  0.2102 -0.8062 -0.0295
17776SOL     OW54768   5.850   1.535   0.194 -0.3766  0.4316  0.2311
17776SOL    HW154769   5.759   1.506   0.205 -1.1004  2.8269  1.0485
17776SOL    HW254770   5.864   1.597   0.266  2.0547 -0.1489  0.3516
17777SOL     OW54771   0.083   7.511   0.545 -0.1618  0.2510 -0.3946
17777SOL    HW154772   0.075   7.542   0.635  1.9797 -1.3562  0.4220
17777SOL    HW254773   0.068   7.417   0.550 -1.3662  0.3178 -1.9659
17778SOL     OW54774   4.217   7.977   0.177  0.0658  0.2055 -0.0895
17778SOL    HW154775   4.262   8.005   0.257 -0.4756  1.2041 -0.1191
17778SOL    HW254776   4.277   7.915   0.136 -0.1999 -1.3733  1.7607
17779SOL     OW54777   6.396   0.576  12.433 -0.0684 -0.2464  0.0454
17779SOL    HW154778   6.355   0.545  12.513 -1.5340  0.8575 -0.2315
17779SOL    HW254779   6.359   0.521  12.364  1.7505 -1.6913  0.1589
17780SOL     OW54780   7.175   0.325   2.027  0.3373  0.1890  0.3124
17780SOL    HW154781   7.258   0.280   2.042  1.0656  0.4565 -2.3774
17780SOL    HW254782   7.123   0.264   1.973  0.2747  1.3989 -1.0790
17781SOL     OW54783   7.073   0.725  12.372  0.2777 -0.1707  0.5146
17781SOL    HW154784   7.024   0.807  12.371  0.4633 -0.0593  0.3585
17781SOL    HW254785   7.013   0.660  12.334  0.6440  0.1955 -0.7181
17782SOL     OW54786   0.511   1.002   0.085 -0.0685 -0.3615  0.3684
17782SOL    HW154787   0.484   0.959   0.004  1.1976  2.3945 -1.6717
17782SOL    HW254788   0.581   0.947   0.119  1.0430 -0.3349 -1.7562
17783SOL     OW54789   5.169   3.035   4.626  0.4741 -0.1069 -0.7499
17783SOL    HW154790   5.165   3.124   4.662  1.7852 -0.2696 -0.1644
17783SOL    HW254791   5.078   3.006   4.624  0.2859  0.0235  2.1913
17784SOL     OW54792   7.049   1.471   1.861 -0.2708 -0.0620 -0.0896
17784SOL    HW154793   7.055   1.463   1.956 -0.1569 -1.6515 -0.1990
17784SOL    HW254794   6.972   1.526   1.846 -0.3139  0.1692  0.9180
17785SOL     OW54795   6.790   2.150   0.205 -0.1760 -0.2036  0.0099
17785SOL    HW154796   6.774   2.219   0.271  0.5123 -0.5088  0.5175
17785SOL    HW254797   6.733   2.078   0.232  1.0925 -0.8443  1.1105
17786SOL     OW54798   5.363   7.421  11.646 -0.0482 -0.0370 -0.0185
17786SOL    HW154799   5.353   7.490  11.711  1.0222 -1.4093  1.7077
17786SOL    HW254800   5.280   7.420  11.598  0.1411  2.8329 -0.5890
17787SOL     OW54801   5.570   0.950   1.598 -0.3905 -0.0973  0.0621
17787SOL    HW154802   5.526   0.879   1.551 -1.3934  0.2529  0.4481
17787SOL    HW254803   5.544   1.029   1.551  2.4174 -0.0827 -1.6985
17788SOL     OW54804   0.533   0.608   0.497  0.3646  0.1856  0.3124
17788SOL    HW154805   0.467   0.539   0.489 -2.7432  2.7596  1.6272
17788SOL    HW254806   0.545   0.641   0.408  1.1472 -1.2623 -0.1696
17789SOL     OW54807   7.881   7.454  11.201  0.2711 -0.4939  0.2008
17789SOL    HW154808   7.933   7.377  11.180  0.1845 -0.9476  1.5764
17789SOL    HW254809   7.936   7.506  11.259  0.5122  0.7381 -1.0558
17790SOL     OW54810   1.116   1.717   0.136 -1.0162  0.1445  0.2018
17790SOL    HW154811   1.115   1.689   0.227  0.3370  2.0442  0.8637
17790SOL    HW254812   1.199   1.762   0.125 -1.6477  0.9879 -1.6598
17791SOL     OW54813   7.559   2.440   0.116 -0.2196 -0.1988 -0.5626
17791SOL    HW154814   7.572   2.522   0.164  0.9425 -1.0900  0.6983
17791SOL    HW254815   7.464   2.431   0.109 -0.4195  0.1957  1.1902
17792SOL     OW54816   4.176   0.005   1.021  0.0042  0.2459  0.4630
17792SOL    HW154817   4.198  -0.071   1.075 -0.2544  0.1314  0.4136
17792SOL    HW254818   4.129   0.064   1.080  2.0118  1.3247  1.0569
17793SOL     OW54819   6.784   0.179   2.320 -0.1059  0.6074  0.1792
17793SOL    HW154820   6.738   0.213   2.243 -0.3077  0.1711  0.1010
17793SOL    HW254821   6.727   0.200   2.394 -0.3966  0.1527  0.0930
17794SOL     OW54822   6.564   6.966  11.480  0.3087  0.3340  0.2058
17794SOL    HW154823   6.581   7.014  11.562  0.3078  2.0959 -0.7725
17794SOL    HW254824   6.473   6.937  11.488  0.1181  1.0093  0.6007
17795SOL     OW54825   0.572   7.725   0.466 -0.2076 -0.4599  0.2194
17795SOL    HW154826   0.622   7.713   0.546  0.9577  0.5883 -0.3089
17795SOL    HW254827   0.506   7.791   0.488  0.1095 -0.1770  0.3215
17796SOL     OW54828   6.627   2.378   1.514  0.0119  0.3737  0.0668
17796SOL    HW154829   6.604   2.448   1.453  2.1390  1.3195  0.2534
17796SOL    HW254830   6.722   2.384   1.522 -0.0904 -0.3427  2.7212
17797SOL     OW54831   6.487   1.609   0.538 -0.0276 -0.5458 -0.8029
17797SOL    HW154832   6.558   1.550   0.511  0.8155 -0.3939  0.9392
17797SOL    HW254833   6.420   1.551   0.573  0.5064 -0.5292  0.2688
17798SOL     OW54834   0.846   1.182   0.205 -0.3502 -0.4621 -0.5626
17798SOL    HW154835   0.876   1.158   0.293  3.3001  2.1780 -0.8552
17798SOL    HW254836   0.875   1.110   0.149  0.2611 -0.6596 -0.0072
17799SOL     OW54837   4.499   7.388   1.049 -0.3587  0.1852 -0.4734
17799SOL    HW154838   4.493   7.466   1.104 -2.4032 -0.1607 -0.1132
17799SOL    HW254839   4.521   7.317   1.109  0.5177  0.2985 -0.6435
17800SOL     OW54840   5.452   0.260  12.122  0.6371  0.3625  0.3580
17800SOL    HW154841   5.475   0.329  12.061  0.4377  0.4002  0.3257
17800SOL    HW254842   5.372   0.290  12.164  0.4168  0.0443  0.1705
17801SOL     OW54843   0.603   3.694   0.181  0.1338 -0.4510 -0.5347
17801SOL    HW154844   0.585   3.677   0.274  1.3310  0.2647 -0.1448
17801SOL    HW254845   0.522   3.670   0.136 -1.6357  2.1262  1.0054
17802SOL     OW54846   7.474   0.773  11.922 -0.1107 -0.1142  0.7458
17802SOL    HW154847   7.499   0.693  11.968  1.0634  0.5057  1.2373
17802SOL    HW254848   7.555   0.824  11.917 -0.4941  0.4063 -0.8710
17803SOL     OW54849   0.058   0.064   1.328 -0.2119 -0.3049  0.0680
17803SOL    HW154850   0.112   0.004   1.378 -0.5767  0.2451  1.1550
17803SOL    HW254851  -0.031   0.052   1.362 -0.4231  0.2866 -0.2411
17804SOL     OW54852   6.974   0.659   0.667  0.1069 -0.2901 -0.1815
17804SOL    HW154853   7.045   0.613   0.621 -0.8601  0.2476 -2.3412
17804SOL    HW254854   6.895   0.612   0.643 -0.5831  0.7976 -0.1142
17805SOL     OW54855   6.745   0.019   0.997 -0.0238 -0.4736  0.0366
17805SOL    HW154856   6.772   0.002   0.906 -0.1468 -0.6726  0.0382
17805SOL    HW254857   6.792   0.100   1.020 -1.7092  0.8681 -0.9582
17806SOL     OW54858   7.695   1.766   0.505  1.0459 -0.1887 -0.2688
17806SOL    HW154859   7.755   1.740   0.435  0.1690 -0.0882 -1.0745
17806SOL    HW254860   7.703   1.697   0.570  2.9700  0.4483  0.2417
17807SOL     OW54861   5.664   7.363   1.004 -0.1426 -0.1898 -0.1283
17807SOL    HW154862   5.662   7.311   1.084 -0.1195 -1.2757 -0.8150
17807SOL    HW254863   5.581   7.412   1.005 -0.7028 -1.1125 -0.0231
17808SOL     OW54864   5.790   1.362   1.962 -0.2608 -0.1855  0.1725
17808SOL    HW154865   5.722   1.362   1.895 -0.6596 -2.0955  0.5398
17808SOL    HW254866   5.871   1.374   1.913 -0.7567  1.5839 -0.3174
17809SOL     OW54867   5.676   0.354   1.271  0.0022  0.7289 -0.1528
17809SOL    HW154868   5.766   0.361   1.301  0.2500  1.7481 -1.0787
17809SOL    HW254869   5.626   0.411   1.330  0.1706  1.1895 -0.4566
17810SOL     OW54870   0.404   0.293   1.445  1.0359 -0.2991  0.0825
17810SOL    HW154871   0.493   0.281   1.413  1.9704 -0.9166  2.6847
17810SOL    HW254872   0.412   0.360   1.513 -0.7248  0.5060 -0.4445
17811SOL     OW54873   7.649   2.122   1.906 -0.3334 -0.0362 -0.2565
17811SOL    HW154874   7.724   2.107   1.849 -0.0412 -1.6811  0.5090
17811SOL    HW254875   7.677   2.190   1.966 -0.6269  1.6953 -1.9819
17812SOL     OW54876   5.826   0.411   0.791  0.0516  0.0794  0.4850
17812SOL    HW154877   5.749   0.393   0.845  1.2468 -1.7485  1.7109
17812SOL    HW254878   5.884   0.461   0.848 -0.9511  3.3751 -1.1163
17813SOL     OW54879   0.345   7.625   1.485  0.7124 -0.2770  0.6275
17813SOL    HW154880   0.284   7.620   1.411  0.7333  0.8661  0.5123
17813SOL    HW254881   0.290   7.616   1.562  0.5243 -0.2328  0.5005
17814SOL     OW54882   6.620   0.226   1.178  0.1459  0.3712  0.1480
17814SOL    HW154883   6.699   0.277   1.197  0.6988 -0.9880  1.7290
17814SOL    HW254884   6.582   0.208   1.263 -0.0628 -1.7675 -0.3344
17815SOL     OW54885   7.266   7.904   0.755  0.7686 -0.5723  0.1972
17815SOL    HW154886   7.186   7.949   0.780 -0.9721 -1.6106 -2.8795
17815SOL    HW254887   7.312   7.966   0.699  0.8654 -0.8329 -0.0175
17816SOL     OW54888   6.244   7.314   2.673  1.1599  0.1514 -0.1352
17816SOL    HW154889   6.322   7.291   2.723  2.3492 -0.6175 -2.2280
17816SOL    HW254890   6.213   7.395   2.713  1.1653 -1.1246  2.7212
17817SOL     OW54891   7.678   0.841   1.978  0.3708  0.3611 -0.0736
17817SOL    HW154892   7.715   0.762   1.938  0.6686 -0.6571  2.0485
17817SOL    HW254893   7.584   0.827   1.976  0.1708  1.5233 -2.6527
17818SOL     OW54894   5.686   0.137  12.429  0.2081 -0.1747 -0.1684
17818SOL    HW154895   5.722   0.196  12.364  0.0489 -0.9984 -1.0346
17818SOL    HW254896   5.642   0.069  12.378 -3.8326  1.4505  0.7856
17819SOL     OW54897   5.782   1.408  11.533  0.5001  0.2676 -0.0041
17819SOL    HW154898   5.694   1.405  11.494  0.3394 -0.1465  0.3758
17819SOL    HW254899   5.838   1.441  11.463 -0.1187  1.4604  0.0367
17820SOL     OW54900   5.439   0.277   0.810 -0.0995  0.0877 -0.3221
17820SOL    HW154901   5.502   0.292   0.880 -2.0279  1.8772  1.1782
17820SOL    HW254902   5.414   0.365   0.781 -1.7832 -0.5505 -0.9417
17821SOL     OW54903   6.649   3.487   2.212  0.2542 -0.6652 -0.6026
17821SOL    HW154904   6.578   3.537   2.253  0.0678 -0.9340 -0.5959
17821SOL    HW254905   6.671   3.537   2.133  2.8665  1.7140  1.4074
17822SOL     OW54906   7.209   0.672   2.098  0.1106  0.0471 -0.5313
17822SOL    HW154907   7.192   0.641   2.187  1.0150 -1.6030 -0.8896
17822SOL    HW254908   7.129   0.651   2.050  0.4056 -1.0732 -0.5741
17823SOL     OW54909   6.229   1.665   1.264  0.4007 -0.2775  0.2666
17823SOL    HW154910   6.303   1.720   1.240 -1.6087  1.8693 -1.5286
17823SOL    HW254911   6.212   1.613   1.185 -0.8642  0.3182  0.1294
17824SOL     OW54912   5.361   2.096   1.618 -0.2429 -0.0191 -0.2311
17824SOL    HW154913   5.344   2.018   1.565 -0.4041  0.2726 -0.6165
17824SOL    HW254914   5.335   2.070   1.707 -0.7814 -0.2398 -0.4474
17825SOL     OW54915   0.145   0.302   1.440 -0.2768  0.1341 -0.0675
17825SOL    HW154916   0.124   0.219   1.396 -1.0916 -0.1521  0.8264
17825SOL    HW254917   0.241   0.300   1.450 -0.1975 -0.3009 -0.8092
17826SOL     OW54918   1.276   7.619   1.303 -0.4998  0.6185  0.3942
17826SOL    HW154919   1.274   7.678   1.228 -1.6543 -0.3610 -0.3823
17826SOL    HW254920   1.185   7.615   1.332 -0.9136 -2.3889 -0.9155
17827SOL     OW54921   6.723   0.471   0.279 -0.1817 -0.2502 -0.2381
17827SOL    HW154922   6.694   0.385   0.251  0.7973 -0.7994  0.3672
17827SOL    HW254923   6.702   0.529   0.206 -2.9884 -0.5186  0.2486
17828SOL     OW54924   7.342   2.393   2.257 -0.0168 -0.6318  0.6978
17828SOL    HW154925   7.307   2.441   2.333  1.7780  1.0051  0.5731
17828SOL    HW254926   7.429   2.432   2.242  0.1490 -1.6978 -1.4981
17829SOL     OW54927   6.616   1.372   0.868 -0.1822  0.4599 -0.2116
17829SOL    HW154928   6.643   1.349   0.779  1.4932  3.2601 -0.5387
17829SOL    HW254929   6.591   1.288   0.907  1.1128 -1.1839 -2.6067
17830SOL     OW54930   5.102   3.001   0.836  0.1992  0.8264 -0.5386
17830SOL    HW154931   5.110   2.996   0.741 -1.4981  0.5641 -0.6905
17830SOL    HW254932   5.118   2.911   0.866 -0.7818  0.5819 -0.7214
17831SOL     OW54933   6.928   0.449   2.091  0.2525 -0.2637  0.0680
17831SOL    HW154934   6.876   0.410   2.021 -1.3586 -1.5546  1.8889
17831SOL    HW254935   7.007   0.394   2.095 -0.3165 -1.0882  0.2106
17832SOL     OW54936   5.497   0.254   0.443  0.2587 -0.0795 -0.0970
17832SOL    HW154937   5.545   0.269   0.524  1.1111  1.3143 -0.8288
17832SOL    HW254938   5.562   0.262   0.374 -0.7326  0.2575 -1.0276
17833SOL     OW54939   7.940   0.278   1.154  0.8227 -0.2378  0.5252
17833SOL    HW154940   8.001   0.237   1.215  2.0929 -0.2641 -0.6928
17833SOL    HW254941   7.951   0.228   1.073  2.2325  2.2285 -0.9349
17834SOL     OW54942   5.339   1.706   0.235  0.0216 -0.3575 -0.1859
17834SOL    HW154943   5.331   1.632   0.175 -0.4860 -0.8006  0.4284
17834SOL    HW254944   5.353   1.667   0.321 -2.5925  0.1573  0.5501
17835SOL     OW54945   7.284   6.550   2.329 -0.3058 -0.2754  0.0966
17835SOL    HW154946   7.196   6.524   2.304  0.0090  0.8868 -2.5249
17835SOL    HW254947   7.341   6.505   2.266  0.8778 -0.0093  0.9438
17836SOL     OW54948   0.881   6.604   0.910  0.3785 -0.0462  0.3376
17836SOL    HW154949   0.868   6.699   0.901  3.0214  0.2853 -0.7311
17836SOL    HW254950   0.920   6.593   0.996  1.5091  0.0539 -0.1432
17837SOL     OW54951   6.765   0.819  11.803  0.0242  0.2883 -0.0144
17837SOL    HW154952   6.827   0.890  11.785  0.1168  0.4480  0.8954
17837SOL    HW254953   6.694   0.862  11.851 -0.2798 -0.0968 -0.1204
17838SOL     OW54954   7.873   2.773   1.895  0.1406  0.3205 -0.2059
17838SOL    HW154955   7.938   2.823   1.945  0.6310  0.0335 -0.5392
17838SOL    HW254956   7.919   2.691   1.872  0.1410  0.6919 -1.6198
17839SOL     OW54957   7.135   0.522   1.204  0.3802  0.0914  0.0736
17839SOL    HW154958   7.130   0.435   1.166 -0.3093 -0.4182  1.2927
17839SOL    HW254959   7.203   0.516   1.270  0.4672  0.5403  0.0336
17840SOL     OW54960   7.394   2.142   1.053  0.5136 -0.2424 -0.3812
17840SOL    HW154961   7.387   2.232   1.084 -1.8181 -0.0937 -1.1212
17840SOL    HW254962   7.482   2.114   1.079  0.8080  1.7887  1.0329
17841SOL     OW54963   0.334   7.907   1.173 -0.0294 -0.3102 -0.4288
17841SOL    HW154964   0.334   7.978   1.109  1.0359  0.1931  0.1091
17841SOL    HW254965   0.316   7.950   1.257  0.1962 -0.7314 -0.1592
17842SOL     OW54966   6.848   7.886  12.014 -0.1547  0.2799 -0.1376
17842SOL    HW154967   6.885   7.847  11.935 -0.8651 -0.7562  0.0111
17842SOL    HW254968   6.777   7.826  12.039 -0.1379  0.7467  1.1113
17843SOL     OW54969   5.701   1.678  11.740  0.2457  0.1748 -0.5633
17843SOL    HW154970   5.736   1.661  11.653  1.8383  1.9833 -0.3261
17843SOL    HW254971   5.735   1.763  11.764 -0.4542 -0.1117  1.7093
17844SOL     OW54972   5.150   2.562   1.754  0.2918 -0.0113 -0.3783
17844SOL    HW154973   5.135   2.651   1.723 -0.5902 -0.1003 -0.2399
17844SOL    HW254974   5.210   2.524   1.690  1.3833  0.9507  0.0384
17845SOL     OW54975   0.167   7.123  11.465 -0.3330 -0.0493  0.2743
17845SOL    HW154976   0.196   7.200  11.416 -0.2963  0.8128  1.6038
17845SOL    HW254977   0.144   7.059  11.398 -1.0523  1.3691 -0.8736
17846SOL     OW54978   7.652   0.008   0.732  0.5122 -0.1409  0.2938
17846SOL    HW154979   7.559   0.027   0.718  0.6430 -0.5874 -1.4387
17846SOL    HW254980   7.652  -0.063   0.796 -0.2950  0.4766  1.0047
17847SOL     OW54981   7.822   0.578   1.632  0.1848 -0.2148 -0.5628
17847SOL    HW154982   7.762   0.508   1.606  1.2728 -1.4804  0.2522
17847SOL    HW254983   7.906   0.554   1.594  0.3414  1.2189 -1.1699
17848SOL     OW54984   5.030   2.043   1.419  0.2465 -0.0707  0.4073
17848SOL    HW154985   5.057   1.963   1.465 -0.1748  0.0547  0.8848
17848SOL    HW254986   4.934   2.036   1.414  0.0433  1.1319  1.8645
17849SOL     OW54987   5.853   2.885   1.902 -0.0606  0.2756 -0.3364
17849SOL    HW154988   5.830   2.894   1.809  0.0933  0.3811 -0.3627
17849SOL    HW254989   5.896   2.800   1.907  0.6622  0.6245 -0.5030
17850SOL     OW54990   6.356   1.716   2.175 -0.5090  0.7909  0.2907
17850SOL    HW154991   6.428   1.775   2.153  1.3378 -1.2393  0.4974
17850SOL    HW254992   6.299   1.718   2.099  0.2818  1.6862 -0.3055
17851SOL     OW54993   5.590   1.459   1.004 -0.3008  0.4678  0.5004
17851SOL    HW154994   5.649   1.393   0.967  0.8311  1.6490  0.1326
17851SOL    HW254995   5.610   1.460   1.098 -0.5346  0.0902  0.5568
17852SOL     OW54996   5.188   1.919   2.573  0.7108  0.0205  0.2203
17852SOL    HW154997   5.101   1.937   2.609  0.9202  1.7109 -0.0062
17852SOL    HW254998   5.177   1.838   2.523 -0.3383 -0.6509  1.4569
17853SOL     OW54999   6.505   1.130   0.960  0.1513 -0.0859  0.5758
17853SOL    HW155000   6.573   1.070   0.990  1.6420  1.7669  1.1576
17853SOL    HW255001   6.495   1.112   0.867  3.1239  1.0033 -0.0857
17854SOL     OW55002   7.176   1.859   3.668  0.5591 -0.1593 -0.0684
17854SOL    HW155003   7.089   1.870   3.632 -0.0050 -0.6024  1.0850
17854SOL    HW255004   7.233   1.912   3.613 -0.5743  0.8305 -0.3109
17855SOL     OW55005   7.265   1.302   3.076  0.2799 -0.1918 -0.6488
17855SOL    HW155006   7.320   1.229   3.105 -0.4284  0.5416  2.9472
17855SOL    HW255007   7.326   1.376   3.069  0.3169 -0.1513  0.0298
17856SOL     OW55008   6.700   2.533   2.780 -0.2572  0.1964  0.4065
17856SOL    HW155009   6.665   2.480   2.708  1.3286  1.5009 -1.4314
17856SOL    HW255010   6.782   2.567   2.746  1.1769 -0.0784  3.3339
17857SOL     OW55011   5.406   0.735   3.738 -0.3161  0.0495 -0.3767
17857SOL    HW155012   5.439   0.672   3.674  0.9838 -0.0546  0.3688
17857SOL    HW255013   5.342   0.685   3.789  1.3540 -0.9899  0.7900
17858SOL     OW55014   5.896   1.018   3.740 -0.2199  0.5190  0.0620
17858SOL    HW155015   5.941   1.085   3.792  0.9665 -0.7838  0.7792
17858SOL    HW255016   5.837   0.975   3.802 -0.7778  0.7019 -0.3315
17859SOL     OW55017   4.864   2.642   3.421 -0.8491  0.4208  0.3765
17859SOL    HW155018   4.923   2.574   3.454 -1.8363 -1.0907 -0.8078
17859SOL    HW255019   4.910   2.724   3.437  1.1461 -0.6358  0.3264
17860SOL     OW55020   6.561   0.284   3.556  0.1614  0.3996  0.5353
17860SOL    HW155021   6.469   0.302   3.575  0.6315  1.3649  2.0327
17860SOL    HW255022   6.608   0.314   3.634  1.9559  1.9714 -1.0464
17861SOL     OW55023   6.058   0.854   3.462 -0.5483  0.0596  0.4164
17861SOL    HW155024   6.126   0.920   3.451 -0.5010 -0.2151 -1.1678
17861SOL    HW255025   6.069   0.823   3.552  0.9157  0.5542  0.4342
17862SOL     OW55026   7.739   2.500   4.299  0.0952  0.6006  0.2351
17862SOL    HW155027   7.731   2.573   4.237 -1.0419 -0.3513 -0.7880
17862SOL    HW255028   7.649   2.477   4.320  0.3992 -1.0935 -0.1905
17863SOL     OW55029   6.746   0.281   4.265 -0.2679 -0.1412  0.5067
17863SOL    HW155030   6.789   0.237   4.191 -0.5649  0.9043 -0.3153
17863SOL    HW255031   6.693   0.349   4.224 -2.5064 -1.2078  1.5051
17864SOL     OW55032   0.047   7.709   2.022 -0.0500 -1.1022 -0.2456
17864SOL    HW155033  -0.008   7.644   2.065 -1.3437 -1.5599 -2.4170
17864SOL    HW255034  -0.012   7.781   2.001  1.0927  0.2303  0.9341
17865SOL     OW55035   7.403   1.169   3.548 -0.3490 -0.1984 -0.0030
17865SOL    HW155036   7.436   1.197   3.633 -0.8283  0.2476  0.0423
17865SOL    HW255037   7.480   1.166   3.492 -0.1551  0.3143  0.2333
17866SOL     OW55038   5.258   2.048   4.611 -0.2098  0.0522 -0.1111
17866SOL    HW155039   5.265   2.129   4.661 -1.3541 -0.0316  0.2015
17866SOL    HW255040   5.291   1.980   4.671 -1.2385  0.0017  0.4136
17867SOL     OW55041   6.706   0.965   1.014  0.2465  0.5827  0.0927
17867SOL    HW155042   6.767   1.034   1.038  0.6686  1.6728 -3.4837
17867SOL    HW255043   6.745   0.885   1.047  2.1460  1.5782  0.3873
17868SOL     OW55044   5.721   2.219   3.974 -0.1003  0.0142  0.0789
17868SOL    HW155045   5.764   2.297   3.938  0.2481 -0.3863 -0.3902
17868SOL    HW255046   5.752   2.215   4.065  0.7738 -0.2026 -0.2179
17869SOL     OW55047   6.251   2.764   4.162 -0.3140 -0.2372 -0.0522
17869SOL    HW155048   6.332   2.765   4.110  0.1358  0.6230  0.6427
17869SOL    HW255049   6.184   2.734   4.101 -0.0764  2.1039 -1.5792
17870SOL     OW55050   5.330   0.718   1.821  0.4186  0.1594 -0.0898
17870SOL    HW155051   5.267   0.754   1.758  0.7175 -0.4319 -0.7450
17870SOL    HW255052   5.276   0.679   1.889  0.0846  0.5552 -0.1249
17871SOL     OW55053   7.707   1.399   4.931 -0.6879 -0.8396 -0.5140
17871SOL    HW155054   7.714   1.310   4.897  0.5912 -0.8341 -0.3243
17871SOL    HW255055   7.736   1.454   4.858  0.4580 -0.7267 -0.0075
17872SOL     OW55056   6.710   2.153   1.732 -0.2106  0.4688  0.4766
17872SOL    HW155057   6.802   2.181   1.731 -0.4627  1.3738  0.8941
17872SOL    HW255058   6.673   2.198   1.808 -1.7046  2.5780 -1.3497
17873SOL     OW55059   7.545   2.838   2.927 -0.3315  0.1348 -0.0550
17873SOL    HW155060   7.449   2.833   2.923 -0.5199  0.3397  2.4277
17873SOL    HW255061   7.573   2.748   2.942 -0.2468  0.2394  0.4352
17874SOL     OW55062   4.952   3.059   3.918 -0.2498 -0.5928 -0.2064
17874SOL    HW155063   4.954   3.071   3.823 -0.0145 -0.1443 -0.1442
17874SOL    HW255064   5.043   3.040   3.941 -0.4257 -1.4216 -0.1603
17875SOL     OW55065   7.333   1.678   2.927  0.5574  0.5901  0.6735
17875SOL    HW155066   7.369   1.631   3.002  1.0649  0.8638  0.6099
17875SOL    HW255067   7.300   1.760   2.963  2.2774  1.4491  0.3814
17876SOL     OW55068   0.034   1.917   3.925 -0.2722 -0.0724  0.2756
17876SOL    HW155069  -0.043   1.964   3.958 -0.7766  0.5666 -1.6600
17876SOL    HW255070   0.010   1.825   3.931 -1.0081  0.1034  0.1795
17877SOL     OW55071   4.672   1.295   3.370  0.1424 -0.3764  0.4462
17877SOL    HW155072   4.727   1.217   3.356 -0.2998 -0.7078  0.5360
17877SOL    HW255073   4.664   1.334   3.283  0.7936 -0.1392  0.4874
17878SOL     OW55074   4.797   1.691   2.710 -0.4209  0.4029  0.8426
17878SOL    HW155075   4.846   1.745   2.648 -0.8518  0.6197  0.6883
17878SOL    HW255076   4.733   1.645   2.656 -2.0866  2.0120  1.3318
17879SOL     OW55077   5.390   1.529   2.566  0.8506 -0.2241  0.5525
17879SOL    HW155078   5.358   1.440   2.581  1.8599 -0.5219  0.9797
17879SOL    HW255079   5.311   1.579   2.543  0.4512 -1.5324 -1.1617
17880SOL     OW55080   7.165   7.476   1.134  0.4089  0.0662  0.0972
17880SOL    HW155081   7.243   7.529   1.148 -0.0583  0.1555  2.9326
17880SOL    HW255082   7.093   7.529   1.170 -1.2049  0.3523 -3.1330
17881SOL     OW55083   4.643   1.675   3.326  0.2141  0.5511  0.4835
17881SOL    HW155084   4.718   1.724   3.294  1.1930 -0.1703  1.6223
17881SOL    HW255085   4.625   1.611   3.256 -0.1431  1.5323 -0.3410
17882SOL     OW55086   6.695   0.715   4.171  0.1582  0.3512 -0.0009
17882SOL    HW155087   6.684   0.667   4.254 -0.9984  0.0261 -0.3314
17882SOL    HW255088   6.784   0.693   4.143  0.2734 -0.1845  0.7479
17883SOL     OW55089   7.054   1.368   3.267 -0.3623 -0.2288 -0.7987
17883SOL    HW155090   7.013   1.292   3.309 -0.9046 -0.0901 -1.0616
17883SOL    HW255091   7.127   1.331   3.217  1.4143 -0.1950  1.6345
17884SOL     OW55092   6.943   6.997   3.688  1.0269  0.1799 -0.1504
17884SOL    HW155093   6.903   6.983   3.774  0.0782 -3.3292 -0.9720
17884SOL    HW255094   7.037   6.982   3.702  0.6938 -2.0409  0.1054
17885SOL     OW55095   6.842   2.876   2.741  0.1884 -0.1084  0.2892
17885SOL    HW155096   6.762   2.918   2.711  0.1582 -0.4397 -0.0983
17885SOL    HW255097   6.850   2.903   2.833 -0.6230 -0.4710  0.4758
17886SOL     OW55098   6.426   3.006   3.345  0.1106  0.6545 -0.0217
17886SOL    HW155099   6.382   2.978   3.265 -0.1507  0.9816  0.0041
17886SOL    HW255100   6.411   3.100   3.348 -2.3792  0.3263  1.8724
17887SOL     OW55101   4.434   7.916   0.718 -0.1227  0.1203  0.3399
17887SOL    HW155102   4.357   7.969   0.700  0.5827  1.6487  1.6514
17887SOL    HW255103   4.399   7.836   0.758 -1.0242  0.6616  0.6585
17888SOL     OW55104   6.253   6.904   3.558 -0.4581  0.1481 -0.0796
17888SOL    HW155105   6.321   6.966   3.530 -0.5491  1.3837  2.2347
17888SOL    HW255106   6.300   6.823   3.577  0.0000  0.2256 -0.8460
17889SOL     OW55107   6.149   0.653   4.802  0.1820  0.5312  0.0704
17889SOL    HW155108   6.191   0.661   4.717  2.3329 -0.0976  1.0214
17889SOL    HW255109   6.114   0.564   4.803  1.0969  0.1635  0.2294
17890SOL     OW55110   6.762   7.957   6.250 -0.0607  0.4115 -0.4442
17890SOL    HW155111   6.819   7.959   6.327 -1.3096  0.0876  0.5196
17890SOL    HW255112   6.706   8.034   6.260  0.0459  0.6085 -1.2706
17891SOL     OW55113   5.950   7.807   3.118  0.4013 -0.2049 -0.0712
17891SOL    HW155114   5.957   7.835   3.027 -0.1671  0.5816  0.1083
17891SOL    HW255115   6.036   7.774   3.140  0.9427  0.8456 -0.5093
17892SOL     OW55116   4.662   2.114   3.824 -0.0859 -0.0839  0.0229
17892SOL    HW155117   4.637   2.055   3.752  0.5436  0.6508 -0.8273
17892SOL    HW255118   4.579   2.152   3.854 -0.2080  1.3651 -1.9206
17893SOL     OW55119   0.192   0.531   2.368 -0.4494 -0.0451 -0.1151
17893SOL    HW155120   0.148   0.569   2.291  0.7398  0.3758 -0.6102
17893SOL    HW255121   0.261   0.476   2.331 -1.0514 -1.3655  0.6347
17894SOL     OW55122   5.831   2.142   3.091 -0.3049 -0.1560 -0.0806
17894SOL    HW155123   5.813   2.184   3.175 -1.9815  0.4889 -0.7257
17894SOL    HW255124   5.866   2.212   3.036  0.7462 -0.5655  0.0429
17895SOL     OW55125   3.709   1.959   3.860 -0.3930 -0.1935  0.0340
17895SOL    HW155126   3.698   1.893   3.930 -1.1333 -0.4781 -0.3403
17895SOL    HW255127   3.763   1.915   3.795  0.3303  0.0854  0.4399
17896SOL     OW55128   0.309   0.133   3.050  0.0090 -0.1902  0.4781
17896SOL    HW155129   0.301   0.099   3.139  0.1992 -0.0970  0.5313
17896SOL    HW255130   0.399   0.167   3.045  0.3033 -1.0188 -0.0400
17897SOL     OW55131   0.999   1.012   4.896  0.1423  0.6791  0.5937
17897SOL    HW155132   1.030   1.086   4.843  0.1138 -0.1197 -0.5654
17897SOL    HW255133   0.919   0.983   4.852  1.1035 -1.1672 -0.0574
17898SOL     OW55134   6.077   2.007   1.710  0.3230 -0.1645 -0.1005
17898SOL    HW155135   6.080   1.936   1.646 -0.7355  0.9564 -1.4592
17898SOL    HW255136   5.984   2.028   1.718  0.5078  0.1780  1.3009
17899SOL     OW55137   4.875   0.975   3.602  0.3917 -0.0905 -0.0220
17899SOL    HW155138   4.952   0.933   3.565  1.3282  1.1281  0.4785
17899SOL    HW255139   4.902   1.004   3.688  0.2498  2.6718 -0.8049
17900SOL     OW55140   6.711   2.283   3.504  0.1921 -0.4409 -0.1673
17900SOL    HW155141   6.649   2.288   3.431 -1.4366 -1.5751  1.0526
17900SOL    HW255142   6.764   2.206   3.486  0.5187 -0.1119 -0.6522
17901SOL     OW55143   6.421   1.182   1.211  0.2329  0.2625 -0.3063
17901SOL    HW155144   6.423   1.162   1.118  0.5681 -1.0896 -0.0296
17901SOL    HW255145   6.511   1.204   1.234  0.1278  0.7200 -0.3192
17902SOL     OW55146   6.244   1.049   2.073 -0.3587 -0.2244 -0.3031
17902SOL    HW155147   6.172   1.079   2.017 -1.0934  0.7175  1.0858
17902SOL    HW255148   6.303   1.003   2.014 -1.1476  0.6589 -1.8395
17903SOL     OW55149   6.675   1.248   4.328 -0.5175 -0.0761 -0.3563
17903SOL    HW155150   6.666   1.169   4.275 -0.0266 -1.0468  0.9699
17903SOL    HW255151   6.705   1.217   4.414 -0.2042  1.5563  0.1623
17904SOL     OW55152   5.759   1.075   1.890  0.7555  0.0426  0.2135
17904SOL    HW155153   5.726   1.033   1.970 -0.3366 -1.2218 -0.8391
17904SOL    HW255154   5.708   1.155   1.882  0.1288 -0.3422  0.2606
17905SOL     OW55155   5.032   0.873   3.027 -0.2216  0.1590 -0.2695
17905SOL    HW155156   5.002   0.963   3.031 -1.2853 -0.1416 -1.0410
17905SOL    HW255157   4.971   0.824   3.081  1.7147  0.1780  2.1305
17906SOL     OW55158   5.483   0.510   4.554 -0.0614  0.9636  0.5920
17906SOL    HW155159   5.507   0.476   4.468 -1.8314  1.0808  0.0048
17906SOL    HW255160   5.410   0.455   4.582  1.3723  0.0007  2.7018
17907SOL     OW55161   6.090   3.133   1.142  0.1903 -0.2893  0.0727
17907SOL    HW155162   5.995   3.130   1.150  0.0158  3.1529  0.7456
17907SOL    HW255163   6.106   3.187   1.065  1.5245  0.8948  1.1323
17908SOL     OW55164   5.327   0.038   2.778  0.2213  0.0753  0.3456
17908SOL    HW155165   5.275   0.060   2.855  0.8076  0.3279  0.6833
17908SOL    HW255166   5.268  -0.012   2.722 -0.9275  1.8074 -0.0760
17909SOL     OW55167   5.993   0.558   0.970 -0.1975 -0.0523 -0.0202
17909SOL    HW155168   6.042   0.536   1.049 -0.6392 -1.4566 -0.1181
17909SOL    HW255169   5.949   0.641   0.991 -1.0018 -0.8443  1.5312
17910SOL     OW55170   6.404   2.244   1.663  0.0919 -0.2171 -0.3593
17910SOL    HW155171   6.351   2.228   1.741  0.1149  0.6856 -0.1433
17910SOL    HW255172   6.373   2.329   1.631  1.6005  0.4706 -0.0620
17911SOL     OW55173   0.961   1.395   3.410  0.0530  0.2095 -0.2261
17911SOL    HW155174   0.947   1.409   3.503 -0.3805  0.7253 -0.3648
17911SOL    HW255175   0.948   1.481   3.370  0.7947  0.1069 -0.7002
17912SOL     OW55176   4.859   2.112   2.371 -0.1903 -0.0239  0.2343
17912SOL    HW155177   4.861   2.090   2.278 -1.9899 -0.6245  0.3060
17912SOL    HW255178   4.802   2.189   2.377 -1.0629 -0.6962  0.9369
17913SOL     OW55179   7.756   2.515   3.561  0.4124  0.1207  0.6656
17913SOL    HW155180   7.786   2.606   3.554 -0.9306  0.6261  1.0845
17913SOL    HW255181   7.777   2.489   3.650 -0.2205  0.4211  0.9096
17914SOL     OW55182   6.144   0.799   1.997 -0.5347  0.4447  0.0394
17914SOL    HW155183   6.192   0.829   1.920 -1.1940  0.8175 -0.2337
17914SOL    HW255184   6.181   0.850   2.070  2.3678 -2.1704  0.5715
17915SOL     OW55185   6.890   7.952   2.965  0.6243 -0.4650 -0.7720
17915SOL    HW155186   6.961   8.016   2.969  0.6059 -0.3217 -2.0690
17915SOL    HW255187   6.847   7.958   3.050  0.0457  1.9301 -1.1750
17916SOL     OW55188   6.578   0.692   2.464  0.1103  0.2931  0.4873
17916SOL    HW155189   6.671   0.672   2.447 -0.3378 -1.4724 -0.1020
17916SOL    HW255190   6.566   0.781   2.431  1.5360  0.4580  0.3432
17917SOL     OW55191   6.288   2.492   3.789  0.7285 -0.3335 -0.0548
17917SOL    HW155192   6.281   2.402   3.820  0.7060  0.1964  1.5694
17917SOL    HW255193   6.363   2.491   3.730 -0.7803 -1.9195 -2.0836
17918SOL     OW55194   7.586   1.650   3.729 -0.6579  0.2179 -0.0745
17918SOL    HW155195   7.546   1.707   3.795  1.0882  3.1456 -1.3675
17918SOL    HW255196   7.514   1.626   3.671 -1.8830 -1.0160  1.8260
17919SOL     OW55197   6.600   1.011   2.641  0.6241  0.2066 -0.7408
17919SOL    HW155198   6.518   1.028   2.687  1.5508  1.3076  0.5959
17919SOL    HW255199   6.574   0.965   2.561 -1.1751 -0.5583  0.2217
17920SOL     OW55200   0.582   1.066   3.459  0.4794  0.2703  0.4594
17920SOL    HW155201   0.591   1.063   3.364 -1.2496  0.2346  0.2655
17920SOL    HW255202   0.570   1.159   3.480 -1.8925  0.0667  0.2923
17921SOL     OW55203   4.707   0.614   2.405 -0.6754 -0.0367  1.1195
17921SOL    HW155204   4.750   0.651   2.327 -0.4085 -2.1729  0.1827
17921SOL    HW255205   4.620   0.655   2.405 -0.4159  0.5716  0.1350
17922SOL     OW55206   7.001   1.383   4.074 -0.1934 -0.1538  0.2670
17922SOL    HW155207   7.034   1.471   4.088  0.7588 -0.5298  0.4672
17922SOL    HW255208   6.906   1.392   4.076 -0.1011  0.7217  1.1789
17923SOL     OW55209   6.786   7.924   2.705 -0.1425  0.0224  0.4723
17923SOL    HW155210   6.796   7.915   2.800 -0.6629 -0.8450  0.4569
17923SOL    HW255211   6.875   7.932   2.672 -0.0298  2.6879  1.2188
17924SOL     OW55212   6.702   6.972   2.297 -0.7625  0.6205 -0.2553
17924SOL    HW155213   6.663   6.949   2.381 -1.6334 -1.1708 -1.1074
17924SOL    HW255214   6.707   6.890   2.249  1.1129  1.3539 -1.4146
17925SOL     OW55215   0.899   1.425   1.599  0.3964  0.3257  0.4854
17925SOL    HW155216   0.937   1.493   1.544  1.6069 -0.8524 -0.2026
17925SOL    HW255217   0.809   1.416   1.567  0.8875  0.0965 -0.9083
17926SOL     OW55218   6.784   1.487   3.509 -0.1614 -0.6732  0.6565
17926SOL    HW155219   6.793   1.486   3.413  1.6319 -0.0064  0.7759
17926SOL    HW255220   6.710   1.429   3.526 -0.9946 -0.2396 -1.1737
17927SOL     OW55221   7.464   2.226   2.517  0.2312 -0.1749  0.0015
17927SOL    HW155222   7.527   2.198   2.583  0.3804  1.6820  0.7133
17927SOL    HW255223   7.435   2.312   2.547 -1.3206 -0.2216 -1.2473
17928SOL     OW55224   5.672   2.457   4.608  0.7555 -0.2118 -0.3371
17928SOL    HW155225   5.715   2.518   4.668  0.6967  1.0385 -1.5101
17928SOL    HW255226   5.591   2.501   4.583  0.5235 -0.9388 -0.9151
17929SOL     OW55227   5.877   2.049   1.127  0.1295 -0.0120  0.6451
17929SOL    HW155228   5.926   2.012   1.200 -1.0825 -1.5099  0.7560
17929SOL    HW255229   5.853   1.972   1.074  0.3177  0.9596 -0.9120
17930SOL     OW55230   5.239   1.333   2.696  0.1081  0.3764  0.4240
17930SOL    HW155231   5.207   1.258   2.646 -0.7491 -0.1167  1.6710
17930SOL    HW255232   5.163   1.366   2.742  1.0117  0.3443  2.0069
17931SOL     OW55233   5.200   7.605   2.447  0.3466  0.3052 -0.4375
17931SOL    HW155234   5.114   7.647   2.449 -0.1917 -0.7097  2.4297
17931SOL    HW255235   5.260   7.673   2.477  0.1401  0.3178 -0.0372
17932SOL     OW55236   6.385   0.380   2.808  0.3433 -0.0973  0.1301
17932SOL    HW155237   6.413   0.436   2.736  0.7063 -0.6783 -0.1931
17932SOL    HW255238   6.418   0.423   2.886  0.6371  0.1358 -0.1168
17933SOL     OW55239   0.006   0.989   3.587 -0.2554 -0.3034 -0.2758
17933SOL    HW155240   0.047   0.942   3.660  1.4600 -1.6196 -1.9762
17933SOL    HW255241   0.046   1.076   3.589 -0.4358 -0.2378  0.5204
17934SOL     OW55242   0.807   1.340   3.123  0.1732  0.2793 -0.6549
17934SOL    HW155243   0.768   1.384   3.048  1.1753  0.0649 -1.3248
17934SOL    HW255244   0.870   1.403   3.157 -0.4793  0.4897  0.1997
17935SOL     OW55245   7.802   0.581   2.842  0.0700 -0.4922  0.2158
17935SOL    HW155246   7.845   0.638   2.779  0.2873 -1.1049 -0.1999
17935SOL    HW255247   7.715   0.620   2.854  0.7000  0.7139  1.0194
17936SOL     OW55248   0.566   0.714   2.897 -0.1536 -0.5440 -0.3118
17936SOL    HW155249   0.578   0.622   2.873 -0.1118 -1.7332  3.6411
17936SOL    HW255250   0.483   0.717   2.943  0.6551  1.0202  1.1709
17937SOL     OW55251   6.481   0.220   0.598 -0.1197 -0.6370 -0.5044
17937SOL    HW155252   6.436   0.297   0.565  0.1748 -0.5563 -0.7238
17937SOL    HW255253   6.495   0.165   0.521  0.4393 -0.5176 -0.4881
17938SOL     OW55254   3.524   1.540   0.723 -0.3502  0.3539 -0.0459
17938SOL    HW155255   3.600   1.540   0.664 -0.3939  1.1678 -0.1123
17938SOL    HW255256   3.498   1.448   0.728 -0.1870  0.2349 -1.0934
17939SOL     OW55257   5.836   1.359   2.584  0.0213  0.0214  0.1351
17939SOL    HW155258   5.866   1.322   2.666  0.0290  1.9688  1.0817
17939SOL    HW255259   5.909   1.347   2.523  1.0214  0.7410  1.1441
17940SOL     OW55260   7.064   0.346   4.325 -0.4099  0.0705  0.3893
17940SOL    HW155261   7.031   0.267   4.368  0.7374  0.0067  1.1916
17940SOL    HW255262   7.100   0.399   4.396 -0.1501  0.8076 -0.2752
17941SOL     OW55263   6.379   0.531   1.944 -0.1458  0.1380 -0.0413
17941SOL    HW155264   6.338   0.577   1.872  0.3729 -0.3135 -0.6409
17941SOL    HW255265   6.440   0.594   1.982 -0.1103  0.2428 -0.2739
17942SOL     OW55266   0.653   2.675   4.135  0.1506  0.3190  0.0013
17942SOL    HW155267   0.581   2.631   4.091  0.1543  1.5612 -1.3020
17942SOL    HW255268   0.713   2.604   4.159 -0.7740 -0.5709 -0.2331
17943SOL     OW55269   7.760   1.659   2.992 -0.1703  0.0599 -0.3826
17943SOL    HW155270   7.730   1.709   2.916 -2.7029  3.5990  2.5665
17943SOL    HW255271   7.719   1.573   2.982 -1.9785  1.0380 -2.1383
17944SOL     OW55272   7.929   2.746   3.647  0.2553 -0.4182 -0.3192
17944SOL    HW155273   7.903   2.679   3.709  0.4351 -1.3001 -1.1701
17944SOL    HW255274   8.021   2.729   3.629  1.4923  2.4321  2.3576
17945SOL     OW55275   5.891   1.404   3.550 -0.8292  0.4415 -0.4726
17945SOL    HW155276   5.926   1.492   3.557  1.0234 -0.1049 -2.0372
17945SOL    HW255277   5.881   1.390   3.456  0.9641 -1.7264 -0.4162
17946SOL     OW55278   6.447   2.156   3.121  0.4038 -0.4587 -0.1688
17946SOL    HW155279   6.499   2.212   3.179  1.7639 -0.3022 -1.4870
17946SOL    HW255280   6.392   2.105   3.181  0.3711  1.0287  1.1530
17947SOL     OW55281   7.337   6.884   5.344  0.4982  0.2747 -0.3575
17947SOL    HW155282   7.398   6.844   5.406  0.9726  1.6807  0.1289
17947SOL    HW255283   7.388   6.895   5.264  1.1050  1.9698  0.2241
17948SOL     OW55284   5.597   1.243   3.486 -0.3071 -0.4268  0.2492
17948SOL    HW155285   5.670   1.182   3.495  1.3545  1.6667  2.1535
17948SOL    HW255286   5.544   1.229   3.565 -0.1318  0.2369  0.5007
17949SOL     OW55287   6.253   0.052   1.672  0.2752  0.2256 -0.3801
17949SOL    HW155288   6.279   0.144   1.664  0.1434  0.3408  0.4527
17949SOL    HW255289   6.164   0.055   1.707  0.2517 -0.2233 -0.3959
17950SOL     OW55290   7.027   3.559   5.026 -0.4472  0.5838 -0.5130
17950SOL    HW155291   7.069   3.477   5.054 -2.3152 -0.1978  0.1941
17950SOL    HW255292   7.092   3.602   4.971 -0.0703 -2.3570 -2.6170
17951SOL     OW55293   5.755   0.482   3.444  0.4083  0.3246 -0.0560
17951SOL    HW155294   5.780   0.455   3.532 -0.0219 -0.2896 -0.1177
17951SOL    HW255295   5.751   0.401   3.393  1.6427  0.7748 -0.9041
17952SOL     OW55296   6.175   0.058   4.217  0.1414 -0.1007 -0.1412
17952SOL    HW155297   6.086   0.027   4.232  0.3414 -0.6021  0.0230
17952SOL    HW255298   6.172   0.152   4.238  0.1805 -0.5491  2.1872
17953SOL     OW55299   5.639   2.157   2.717 -0.2714 -0.0416 -0.1551
17953SOL    HW155300   5.698   2.232   2.731 -1.3628  0.5447  1.7597
17953SOL    HW255301   5.614   2.130   2.805  1.2929 -3.7461 -0.6594
17954SOL     OW55302   6.676   2.100   2.732  0.0340 -0.1748 -0.8988
17954SOL    HW155303   6.645   2.038   2.667 -0.0773  0.2019 -1.2104
17954SOL    HW255304   6.598   2.122   2.783  0.2536 -0.9937 -0.1858
17955SOL     OW55305   7.000   3.579   3.766 -0.0007 -0.3059  0.0367
17955SOL    HW155306   6.935   3.510   3.751 -0.2165 -0.2434  0.6832
17955SOL    HW255307   7.010   3.583   3.861  3.9054 -3.0779 -0.0347
17956SOL     OW55308   5.867   0.785   1.924 -0.2089  0.0748 -0.1533
17956SOL    HW155309   5.802   0.753   1.988 -0.8542 -1.1624 -1.3723
17956SOL    HW255310   5.951   0.776   1.969 -0.6354 -0.8785  0.4857
17957SOL     OW55311   3.286   0.933   5.678  0.4262 -0.3773 -0.0155
17957SOL    HW155312   3.300   0.984   5.757  0.0009 -1.6743  0.9379
17957SOL    HW255313   3.309   0.843   5.703  0.4772 -0.7857 -1.4217
17958SOL     OW55314   5.381   1.822   4.716  0.1443 -0.0588  0.5155
17958SOL    HW155315   5.437   1.848   4.789 -0.6297  0.8715  0.8027
17958SOL    HW255316   5.427   1.749   4.675  0.7634 -0.3708  1.7175
17959SOL     OW55317   5.639   2.053   3.615  0.2440  0.0291  0.3416
17959SOL    HW155318   5.689   2.118   3.566  2.7991 -0.8097  1.6273
17959SOL    HW255319   5.582   2.105   3.671  0.3365  1.0820 -0.4934
17960SOL     OW55320   7.007   1.042   6.126  0.5913 -0.5317 -0.5357
17960SOL    HW155321   6.924   1.043   6.077 -0.7181 -2.5052  1.4489
17960SOL    HW255322   7.064   0.985   6.075  0.1459 -0.4759 -1.1053
17961SOL     OW55323   6.946   0.547   4.201 -0.3033  0.5674  0.3256
17961SOL    HW155324   6.969   0.457   4.222  0.4554  0.6490 -0.1171
17961SOL    HW255325   6.947   0.550   4.105  0.1199  1.1517  0.3434
17962SOL     OW55326   6.986   0.880   2.908 -0.4208  0.1852  0.1042
17962SOL    HW155327   6.932   0.842   2.838 -2.1005  2.2018  0.1925
17962SOL    HW255328   6.959   0.972   2.912  0.7799  0.5211  2.3485
17963SOL     OW55329   6.747   1.241   2.656  0.5203  0.0543  0.3345
17963SOL    HW155330   6.693   1.314   2.685  0.7153  0.0341  0.7566
17963SOL    HW255331   6.689   1.165   2.657  0.8734 -0.2280  2.0772
17964SOL     OW55332   5.040   0.460   1.518  0.4693  0.4865 -0.1736
17964SOL    HW155333   5.054   0.523   1.588 -2.2907 -0.1080  1.0482
17964SOL    HW255334   4.962   0.491   1.473  0.3884 -0.8344 -0.9996
17965SOL     OW55335   5.567   0.616   2.899 -0.0069  0.3282 -0.7664
17965SOL    HW155336   5.614   0.537   2.869  1.4714  0.1052  1.8253
17965SOL    HW255337   5.482   0.584   2.927  0.3988 -0.2819 -0.2026
17966SOL     OW55338   5.672   3.216   3.112 -0.5456  0.8508  0.0949
17966SOL    HW155339   5.760   3.180   3.120 -1.0734 -0.3329  0.9097
17966SOL    HW255340   5.685   3.303   3.074  1.0278  0.9786  0.8372
17967SOL     OW55341   5.142   1.653   2.476 -0.2778 -0.5069 -0.2365
17967SOL    HW155342   5.168   1.687   2.390  0.0136 -1.3241 -0.4790
17967SOL    HW255343   5.053   1.620   2.463 -0.2519 -0.5859 -0.2164
17968SOL     OW55344   0.086   0.587   3.289 -0.0912  0.1143 -0.0478
17968SOL    HW155345   0.019   0.627   3.344 -1.4967 -2.6962  0.4596
17968SOL    HW255346   0.056   0.602   3.199 -1.1586 -0.6588  0.1629
17969SOL     OW55347   6.358   6.406   1.879  0.1703 -0.4616 -0.1819
17969SOL    HW155348   6.331   6.471   1.943 -1.3375 -0.1382 -1.0873
17969SOL    HW255349   6.321   6.324   1.911  3.7411 -1.4128  2.0353
17970SOL     OW55350   6.730   1.639   2.776 -0.1961  0.4068 -0.5147
17970SOL    HW155351   6.660   1.589   2.817 -0.5158  1.1379 -0.1549
17970SOL    HW255352   6.702   1.650   2.685 -0.4587  0.5301 -0.4196
17971SOL     OW55353   0.793   1.341   3.929  0.3105  0.0450 -0.0456
17971SOL    HW155354   0.817   1.399   4.001  0.9307 -1.0325  0.6561
17971SOL    HW255355   0.723   1.287   3.963 -0.3170  0.4171 -0.7179
17972SOL     OW55356   6.307   1.039   3.430 -0.0276  0.0300  0.0803
17972SOL    HW155357   6.260   1.121   3.411  0.4246  0.6477  1.4915
17972SOL    HW255358   6.399   1.065   3.436  0.2426 -0.7699 -0.4217
17973SOL     OW55359   7.132   3.118   3.679 -0.2535 -0.1510 -0.8747
17973SOL    HW155360   7.226   3.110   3.693 -0.2572 -0.8435 -1.1696
17973SOL    HW255361   7.093   3.059   3.744 -0.4201 -0.7419 -1.4902
17974SOL     OW55362   7.756   7.623   2.208  0.0187  0.1461 -0.0241
17974SOL    HW155363   7.684   7.563   2.226  0.1724  0.2533  0.9872
17974SOL    HW255364   7.834   7.568   2.209  0.2484  0.4644  1.6958
17975SOL     OW55365   7.898   0.116   3.075  0.6666  0.3265  0.2428
17975SOL    HW155366   7.918   0.189   3.017 -2.6451  1.4561  0.3669
17975SOL    HW255367   7.905   0.152   3.163 -0.3865  0.3614  0.3233
17976SOL     OW55368   7.454   1.438   2.783  0.2991 -0.6878 -0.1924
17976SOL    HW155369   7.531   1.467   2.831 -0.5855  0.9959  0.3051
17976SOL    HW255370   7.385   1.498   2.810 -0.7221 -0.9205 -2.0885
17977SOL     OW55371   5.855   1.492   2.213  0.1689  0.4260 -0.4100
17977SOL    HW155372   5.854   1.414   2.268  1.3459 -0.1440 -1.1600
17977SOL    HW255373   5.800   1.469   2.138 -1.1145  1.0629  0.2952
17978SOL     OW55374   6.093   0.720   3.705 -0.1784  0.3865 -0.1631
17978SOL    HW155375   6.025   0.652   3.702  0.1823  0.0289 -0.4685
17978SOL    HW255376   6.087   0.757   3.793  0.1198 -0.5730  0.2781
17979SOL     OW55377   5.813   1.391   4.057 -0.1333 -0.5798 -0.0421
17979SOL    HW155378   5.796   1.360   3.968  0.6775  2.2385 -1.3148
17979SOL    HW255379   5.789   1.484   4.054  0.3552 -0.3076  2.5809
17980SOL     OW55380   5.260   0.806   4.048 -0.1069 -0.1531  0.1048
17980SOL    HW155381   5.173   0.834   4.017  0.9024  2.6412 -0.4685
17980SOL    HW255382   5.321   0.862   4.000  1.9235 -0.6077  2.0398
17981SOL     OW55383   6.680   1.823   1.925  0.8244  0.1724 -0.5648
17981SOL    HW155384   6.663   1.897   1.983  0.6611 -0.7732  0.6280
17981SOL    HW255385   6.594   1.802   1.889  0.6323 -0.2548  0.1222
17982SOL     OW55386   4.796   3.962   2.837 -0.1328  0.2205  0.6021
17982SOL    HW155387   4.791   4.020   2.913 -1.3722  1.6326 -0.4970
17982SOL    HW255388   4.746   3.885   2.863 -0.7212  0.7788  1.1624
17983SOL     OW55389   5.640   1.603   1.299  0.5527 -0.0794  0.1227
17983SOL    HW155390   5.712   1.621   1.360  0.5418  0.8490 -0.1240
17983SOL    HW255391   5.662   1.653   1.220 -0.5725  0.6057  0.2088
17984SOL     OW55392   5.201   1.408   0.524  0.3755 -0.2734 -0.0295
17984SOL    HW155393   5.229   1.475   0.586  0.9384  0.2928 -0.8759
17984SOL    HW255394   5.211   1.325   0.571 -0.6733  0.2465  1.1598
17985SOL     OW55395   5.031   1.095   3.818 -0.0333 -0.0646 -0.0046
17985SOL    HW155396   5.102   1.105   3.882  0.8795  0.3254 -1.0528
17985SOL    HW255397   5.001   1.184   3.800  1.1673  0.0386 -1.6897
17986SOL     OW55398   5.342   1.026   4.192  0.5293  0.4313 -0.5516
17986SOL    HW155399   5.411   1.078   4.234  1.2118 -0.2398 -0.8300
17986SOL    HW255400   5.365   0.935   4.211 -0.4109  0.2023 -0.4476
17987SOL     OW55401   7.923   1.774   3.447  0.4743 -0.1185 -0.4903
17987SOL    HW155402   7.904   1.855   3.494  3.1584  0.8879 -0.9364
17987SOL    HW255403   7.897   1.705   3.508  1.1268  1.1105  1.2920
17988SOL     OW55404   6.536   1.347   2.775 -0.5189  0.4398  0.0104
17988SOL    HW155405   6.544   1.423   2.833 -0.9580  0.2248  0.3612
17988SOL    HW255406   6.442   1.337   2.763 -0.4583 -0.0243 -0.0677
17989SOL     OW55407   0.870   7.643   1.905 -0.6990 -0.1871 -0.4220
17989SOL    HW155408   0.906   7.660   1.818  0.6714  0.5356  0.2576
17989SOL    HW255409   0.844   7.551   1.903 -0.7551 -0.1592 -1.6017
17990SOL     OW55410   6.193   1.365   4.062  0.2079 -0.5377 -0.6476
17990SOL    HW155411   6.214   1.419   3.986  2.6454 -2.4578 -1.4594
17990SOL    HW255412   6.278   1.336   4.096 -0.8552 -0.8784  2.0159
17991SOL     OW55413   5.055   0.954   1.121  0.4840 -0.1774 -0.5141
17991SOL    HW155414   4.992   1.025   1.106  0.8103 -0.0797 -1.5379
17991SOL    HW255415   5.137   0.987   1.085  1.4217  0.1175  1.7934
17992SOL     OW55416   6.861   3.063   4.576 -0.4194 -0.3457 -0.2798
17992SOL    HW155417   6.933   3.119   4.604  0.4805 -1.2983 -0.6068
17992SOL    HW255418   6.904   2.989   4.532 -1.5866 -1.0068 -0.3504
17993SOL     OW55419   5.303   1.362   0.988  0.4356  0.4819 -0.3462
17993SOL    HW155420   5.388   1.392   1.022  0.3291  0.4147 -0.0114
17993SOL    HW255421   5.242   1.378   1.060  0.2756 -0.0135 -0.3662
17994SOL     OW55422   4.782   2.086   2.110 -0.3863  0.5216 -0.8671
17994SOL    HW155423   4.698   2.130   2.093 -0.1662  1.5173  0.4677
17994SOL    HW255424   4.814   2.063   2.023 -1.5475  1.0668 -1.4729
17995SOL     OW55425   5.315   1.572   3.674  0.8801  0.4252 -0.3431
17995SOL    HW155426   5.402   1.550   3.707  1.2985  1.5996 -0.6332
17995SOL    HW255427   5.290   1.651   3.722  1.1594  1.7011 -2.1856
17996SOL     OW55428   6.549   1.922   2.536 -0.6977  0.0792 -0.3946
17996SOL    HW155429   6.458   1.922   2.567 -0.8343  1.7370 -0.7452
17996SOL    HW255430   6.547   1.970   2.454  0.5396  0.3352 -0.2937
17997SOL     OW55431   6.168   2.498   2.356  0.2553  0.3891  0.0378
17997SOL    HW155432   6.098   2.508   2.420  1.4742 -1.1938  1.7367
17997SOL    HW255433   6.144   2.420   2.307  0.0827  0.7192 -0.4053
17998SOL     OW55434   6.320   7.688   3.484 -0.1123 -0.3597 -0.2579
17998SOL    HW155435   6.307   7.594   3.468 -1.4451 -0.4567  1.1744
17998SOL    HW255436   6.296   7.700   3.576  3.5163  0.7804  0.7158
17999SOL     OW55437   6.334   2.006   2.056  0.1802  0.4026 -0.1661
17999SOL    HW155438   6.308   2.079   2.000  1.4265  0.0229 -1.3008
17999SOL    HW255439   6.264   1.999   2.121 -1.3020  0.8983 -1.6457
18000SOL     OW55440   6.504   2.407   4.894 -0.0537 -0.3473 -0.2668
18000SOL    HW155441   6.426   2.358   4.919 -0.7119  0.2239 -1.1408
18000SOL    HW255442   6.516   2.388   4.801  0.6489 -0.1628 -0.2202
18001SOL     OW55443   0.612   0.758   3.566  0.3698  0.2025 -0.3016
18001SOL    HW155444   0.617   0.812   3.644  1.2330 -0.3151  0.0155
18001SOL    HW255445   0.703   0.740   3.542  0.1881  1.5674 -2.3015
18002SOL     OW55446   4.486   3.143   4.649  0.0778 -0.0339  0.3713
18002SOL    HW155447   4.518   3.227   4.619  1.4972 -0.4057  0.8021
18002SOL    HW255448   4.401   3.133   4.605  0.1898  1.3119 -0.1873
18003SOL     OW55449   3.853   0.965   3.225 -0.6676  0.8559 -0.0430
18003SOL    HW155450   3.935   1.005   3.253 -1.0404  0.5686  1.5672
18003SOL    HW255451   3.879   0.881   3.186 -0.2557  0.0947  1.7827
18004SOL     OW55452   7.427   1.457   0.718 -0.4159  0.1722 -0.0897
18004SOL    HW155453   7.352   1.464   0.778 -0.9488 -1.8094 -0.4388
18004SOL    HW255454   7.433   1.543   0.677 -2.7321  0.3323 -0.2674
18005SOL     OW55455   6.224   1.727   1.916  0.0964  0.3360  0.1582
18005SOL    HW155456   6.241   1.643   1.874  0.7179  1.0732 -1.1355
18005SOL    HW255457   6.142   1.714   1.965  0.0440 -0.9261 -0.2352
18006SOL     OW55458   5.594   0.614   1.018 -0.5402  0.6777 -0.1763
18006SOL    HW155459   5.518   0.621   1.075 -0.5179  1.0203 -0.1872
18006SOL    HW255460   5.669   0.617   1.078 -0.5469 -1.2718 -0.0014
18007SOL     OW55461   6.005   1.690   3.559  0.0621 -0.0913 -0.3414
18007SOL    HW155462   5.951   1.763   3.528 -1.5945 -1.1232 -0.0365
18007SOL    HW255463   5.998   1.694   3.654 -1.1040 -1.3436 -0.3386
18008SOL     OW55464   7.366   0.161   3.331 -0.1148 -0.6279  0.1268
18008SOL    HW155465   7.386   0.255   3.332  0.7682 -0.8184  0.9305
18008SOL    HW255466   7.403   0.129   3.248 -0.9389 -0.1697 -0.4328
18009SOL     OW55467   5.731   2.755   1.241 -0.0182 -0.5592  0.3924
18009SOL    HW155468   5.719   2.808   1.162 -0.2562 -0.5038  0.4642
18009SOL    HW255469   5.824   2.761   1.260 -0.0326 -0.2245  0.3603
18010SOL     OW55470   6.848   2.299   2.856 -0.0005 -0.2905  0.1036
18010SOL    HW155471   6.793   2.234   2.812 -1.2513  0.6722  0.1718
18010SOL    HW255472   6.798   2.381   2.848  1.5969  0.7001 -0.1212
18011SOL     OW55473   3.833   1.542   3.164  0.1769 -0.1178 -0.2442
18011SOL    HW155474   3.810   1.507   3.078  1.7318 -1.5600 -0.1220
18011SOL    HW255475   3.927   1.558   3.159  0.7502 -2.3131  1.8243
18012SOL     OW55476   7.620   2.253   3.816 -0.1629 -0.0746 -0.2429
18012SOL    HW155477   7.683   2.325   3.810 -0.3945  0.1375 -0.1673
18012SOL    HW255478   7.596   2.250   3.908 -1.8776  1.2571 -0.5930
18013SOL     OW55479   6.021   2.534   1.495 -0.1201 -0.2637  0.0100
18013SOL    HW155480   5.938   2.542   1.448 -0.1583  2.7999  0.4323
18013SOL    HW255481   6.001   2.564   1.584  0.9507 -1.8056  0.8249
18014SOL     OW55482   4.638   0.625   3.186 -0.2532  0.2083  0.4368
18014SOL    HW155483   4.602   0.554   3.134 -1.7646  2.6963 -2.2376
18014SOL    HW255484   4.733   0.618   3.173 -0.3149 -1.5574  0.6968
18015SOL     OW55485   1.020   2.817   4.611 -0.7260 -0.0997 -0.2616
18015SOL    HW155486   0.973   2.877   4.553 -1.3338  0.5128  0.8392
18015SOL    HW255487   1.113   2.835   4.594 -0.9023  1.0132 -0.0986
18016SOL     OW55488   5.670   1.797   0.755 -0.1118 -0.4909  0.6171
18016SOL    HW155489   5.724   1.718   0.759 -0.3599 -0.6193  1.4928
18016SOL    HW255490   5.728   1.862   0.714  0.8973 -0.4981  1.9475
18017SOL     OW55491   7.168   1.086   5.286 -0.4836  0.6345  0.1622
18017SOL    HW155492   7.187   1.111   5.196 -1.3151  1.8459  0.2973
18017SOL    HW255493   7.234   1.132   5.338 -1.0221  1.2814  0.2867
18018SOL     OW55494   7.643   1.114   2.799 -0.2278 -0.0160  0.0660
18018SOL    HW155495   7.585   1.151   2.732 -2.3688 -3.0519  0.0564
18018SOL    HW255496   7.598   1.132   2.882  0.6447  0.6630  0.4091
18019SOL     OW55497   6.141   1.252   3.459 -0.0439 -0.3074  0.3098
18019SOL    HW155498   6.075   1.251   3.389 -1.3711 -1.7708  1.4978
18019SOL    HW255499   6.092   1.278   3.537  0.3429 -3.0177  1.5642
18020SOL     OW55500   7.548   0.637   4.406  0.0897  0.2841  0.6635
18020SOL    HW155501   7.487   0.567   4.429 -0.4681  0.3077 -0.6186
18020SOL    HW255502   7.506   0.681   4.331  1.3617  0.7276  0.1811
18021SOL     OW55503   4.210   7.915   2.663 -0.4390 -0.3963  0.4025
18021SOL    HW155504   4.146   7.910   2.592 -0.1456 -0.8603  0.1697
18021SOL    HW255505   4.291   7.945   2.621 -0.2276 -0.8045  0.5159
18022SOL     OW55506   6.459   7.339   2.218  0.7051 -0.2781 -0.4761
18022SOL    HW155507   6.509   7.414   2.250  0.5200 -0.8290  1.2343
18022SOL    HW255508   6.409   7.309   2.294  0.7654 -2.1193 -1.1002
18023SOL     OW55509   5.732   6.833   1.069 -0.3369  0.0666  0.4023
18023SOL    HW155510   5.790   6.902   1.101  0.1436 -0.2957  0.3137
18023SOL    HW255511   5.658   6.834   1.130 -0.3896  0.7336  0.3354
18024SOL     OW55512   7.088   1.185   4.679 -0.1058  0.1611  0.1130
18024SOL    HW155513   7.134   1.253   4.629 -0.8120  0.3598 -0.2705
18024SOL    HW255514   7.028   1.234   4.735 -0.1199 -0.1171  0.3398
18025SOL     OW55515   5.121   1.428   3.562 -0.6459 -0.4990  0.1280
18025SOL    HW155516   5.195   1.467   3.609 -0.0655 -1.3818 -0.0356
18025SOL    HW255517   5.101   1.490   3.492  0.7683 -0.8482 -0.6148
18026SOL     OW55518   6.093   1.498   1.073 -0.4016  0.0125 -0.2343
18026SOL    HW155519   6.180   1.466   1.049  0.3032 -0.0473  2.1971
18026SOL    HW255520   6.042   1.420   1.092 -1.7054 -0.1062 -3.4556
18027SOL     OW55521   5.844   0.473   2.858 -0.3707 -0.6659 -0.0760
18027SOL    HW155522   5.846   0.382   2.829 -0.1931 -1.3773  2.0416
18027SOL    HW255523   5.833   0.469   2.953  1.5687  1.4770  0.3473
18028SOL     OW55524   6.428   2.439   3.402  0.0149 -0.0587 -0.1738
18028SOL    HW155525   6.497   2.414   3.341  0.3798  0.7254 -0.0888
18028SOL    HW255526   6.472   2.494   3.467 -0.5304 -0.2096  0.3324
18029SOL     OW55527   7.569   1.016   3.376  0.3050 -0.7497 -0.1811
18029SOL    HW155528   7.541   0.940   3.427 -0.2542 -0.8493 -0.6229
18029SOL    HW255529   7.498   1.029   3.313 -0.1221  0.7622  0.5498
18030SOL     OW55530   5.912   1.257   3.239 -0.0216  0.4870  0.3761
18030SOL    HW155531   5.842   1.218   3.187 -0.3373  0.5623  0.7377
18030SOL    HW255532   5.947   1.326   3.184  0.7875 -0.5212 -0.4242
18031SOL     OW55533   5.825   1.053   3.485 -0.6691 -0.4370  0.6764
18031SOL    HW155534   5.842   1.027   3.576 -0.3009 -1.3592  0.3597
18031SOL    HW255535   5.893   1.009   3.434 -2.6223 -2.4533 -0.3854
18032SOL     OW55536   7.387   0.914   2.228  0.3770  0.2342 -0.0837
18032SOL    HW155537   7.341   0.862   2.161 -0.6135 -0.5785  1.1897
18032SOL    HW255538   7.438   0.849   2.277  0.9071  0.7932  0.1047
18033SOL     OW55539   4.655   6.858   1.302  0.4335  0.4122 -0.5810
18033SOL    HW155540   4.643   6.793   1.233  0.6986  0.6175 -0.8240
18033SOL    HW255541   4.709   6.814   1.368  0.4510  0.3238 -0.6560
18034SOL     OW55542   7.416   7.676   4.227  1.0458  0.0125 -0.2783
18034SOL    HW155543   7.444   7.682   4.319  3.0634  1.1410 -0.8850
18034SOL    HW255544   7.443   7.589   4.199 -2.3750 -1.5940  0.9426
18035SOL     OW55545   5.277   1.556   3.179 -0.1610  0.7358  0.2221
18035SOL    HW155546   5.323   1.629   3.221  0.9774 -0.1910  0.6323
18035SOL    HW255547   5.188   1.589   3.166  0.2451  2.0944  0.6556
18036SOL     OW55548   6.840   1.977   2.951  0.3977  0.3808 -0.7313
18036SOL    HW155549   6.778   2.023   2.894  0.4080 -1.5236 -2.3870
18036SOL    HW255550   6.785   1.936   3.018  0.0964  0.4114 -0.9582
18037SOL     OW55551   6.850   2.089   3.954  0.0677  0.6044 -0.1579
18037SOL    HW155552   6.873   2.122   4.041 -1.7380  2.0032 -0.1585
18037SOL    HW255553   6.829   2.167   3.903 -1.8910 -0.3367 -0.9141
18038SOL     OW55554   7.734   3.731   2.234  0.3679 -0.1113 -0.2873
18038SOL    HW155555   7.644   3.760   2.220  0.3486 -0.3165 -0.5999
18038SOL    HW255556   7.786   3.786   2.175  0.7097  1.5151  1.4303
18039SOL     OW55557   6.046   0.643   3.084  0.1578 -0.0840 -0.0390
18039SOL    HW155558   6.059   0.554   3.116  1.8939  0.4566  0.9685
18039SOL    HW255559   5.991   0.684   3.151  0.1576 -0.1518  0.0031
18040SOL     OW55560   6.178   1.108   1.632  0.0066  0.2787 -0.3958
18040SOL    HW155561   6.172   1.083   1.724 -0.2932  0.9140 -0.2425
18040SOL    HW255562   6.137   1.036   1.585 -0.3840  0.2349  0.0082
18041SOL     OW55563   4.934   1.838   3.666 -0.3528  0.4269 -0.3760
18041SOL    HW155564   4.866   1.804   3.608  2.1748 -0.6672 -2.9514
18041SOL    HW255565   4.947   1.769   3.731 -1.1477  0.3140 -0.3313
18042SOL     OW55566   5.287   1.762   1.822  0.0406 -0.1864  0.2013
18042SOL    HW155567   5.214   1.823   1.833 -0.4840 -0.7019 -0.3698
18042SOL    HW255568   5.295   1.719   1.908 -1.1305 -0.9960 -0.0701
18043SOL     OW55569   5.567   0.872   3.002  0.3107  0.6002  0.2743
18043SOL    HW155570   5.530   0.794   2.962 -1.6298  2.2574 -1.3726
18043SOL    HW255571   5.557   0.858   3.096  1.8475 -1.9188  0.1571
18044SOL     OW55572   7.619   2.494   3.234 -0.8229  0.5358 -0.4985
18044SOL    HW155573   7.606   2.588   3.219 -1.6876  0.3441 -0.9988
18044SOL    HW255574   7.544   2.453   3.192 -0.7581 -0.3451  0.2372
18045SOL     OW55575   6.943   0.434   3.103 -0.0008 -0.2133  0.0133
18045SOL    HW155576   6.936   0.404   3.012  0.9618 -0.7887  0.1077
18045SOL    HW255577   6.989   0.518   3.097  1.1443 -0.8203  0.0347
18046SOL     OW55578   4.824   1.956   1.861  0.3745 -0.2418 -0.1988
18046SOL    HW155579   4.862   1.904   1.791  2.1920 -0.2172  0.7061
18046SOL    HW255580   4.780   1.892   1.917 -0.6887 -0.3131 -1.0934
18047SOL     OW55581   5.122   1.074   4.497 -0.1210  0.4130 -0.5471
18047SOL    HW155582   5.147   1.162   4.526 -0.0825  0.2795 -0.1708
18047SOL    HW255583   5.202   1.023   4.506 -0.6583 -0.1949  1.3545
18048SOL     OW55584   6.005   3.150   2.060 -0.0858 -0.4462 -0.1414
18048SOL    HW155585   5.976   3.064   2.088  0.2538 -0.1195  1.2879
18048SOL    HW255586   6.026   3.197   2.141  0.4896  0.7120 -0.9169
18049SOL     OW55587   0.011   0.874   2.936  0.0706  0.2867 -0.2323
18049SOL    HW155588  -0.035   0.896   2.855 -0.7695  0.8472  0.3858
18049SOL    HW255589  -0.053   0.888   3.005  0.8596  0.0739  0.5641
18050SOL     OW55590   7.990   1.728   2.195 -0.0905 -0.5693  0.6440
18050SOL    HW155591   8.020   1.755   2.282 -0.5231 -0.9257  0.9060
18050SOL    HW255592   7.910   1.679   2.211 -1.0177  0.6449 -0.0685
18051SOL     OW55593   4.538   0.604   3.569  0.4006  0.1542 -0.0558
18051SOL    HW155594   4.484   0.553   3.508 -0.6914 -1.0112  1.7660
18051SOL    HW255595   4.474   0.643   3.629  1.4069  1.6419  0.0823
18052SOL     OW55596   4.661   1.962   4.748 -0.1441 -0.0998  0.0349
18052SOL    HW155597   4.659   2.057   4.738 -0.4327 -0.1971 -0.8604
18052SOL    HW255598   4.583   1.942   4.801 -0.2479  0.1283 -0.0305
18053SOL     OW55599   7.006   0.407   1.628 -0.2660  0.3164  0.2977
18053SOL    HW155600   6.985   0.500   1.621 -0.3855  0.3702  1.2120
18053SOL    HW255601   6.926   0.367   1.661  0.2974  0.1593  1.5417
18054SOL     OW55602   0.822   0.510   4.213  0.5298 -0.1638 -0.1693
18054SOL    HW155603   0.847   0.566   4.140 -0.3239  0.9374  0.3719
18054SOL    HW255604   0.905   0.489   4.256  0.9731 -0.3098 -1.0758
18055SOL     OW55605   7.234   3.565   4.013  0.6002  0.2461  0.4282
18055SOL    HW155606   7.291   3.576   3.937 -2.1671  1.4645 -1.6339
18055SOL    HW255607   7.193   3.479   4.000 -1.0821  1.1255 -0.4363
18056SOL     OW55608   6.189   1.476   2.037 -0.0105 -0.4442  0.0095
18056SOL    HW155609   6.133   1.551   2.058  0.9240 -0.1376  1.6145
18056SOL    HW255610   6.213   1.439   2.123  2.1682 -0.5982 -0.5976
18057SOL     OW55611   6.680   1.009   2.101  0.4745  0.2193 -0.1726
18057SOL    HW155612   6.739   1.004   2.177 -0.3131 -0.4073  0.4191
18057SOL    HW255613   6.661   1.103   2.093  0.2877  0.2637  0.6389
18058SOL     OW55614   6.863   0.824   3.358  0.7390 -0.0310 -0.4094
18058SOL    HW155615   6.789   0.825   3.297 -0.0031  0.9483  0.4634
18058SOL    HW255616   6.929   0.878   3.316  1.1090 -1.1908 -1.3528
18059SOL     OW55617   4.908   7.856   5.264 -0.4727  0.0886  0.2592
18059SOL    HW155618   4.873   7.770   5.242 -0.3312  0.5228 -1.8244
18059SOL    HW255619   4.909   7.857   5.360 -1.8938 -1.6345  0.3495
18060SOL     OW55620   5.314   7.971   3.830  0.0614  0.2477  0.1077
18060SOL    HW155621   5.254   7.897   3.844  0.1982  0.0972 -0.0895
18060SOL    HW255622   5.356   7.983   3.915  0.4140 -0.2392  0.0083
18061SOL     OW55623   6.527   1.267   6.161  0.0560  0.3908  0.0731
18061SOL    HW155624   6.613   1.301   6.188  0.4967  0.4024 -1.2703
18061SOL    HW255625   6.530   1.174   6.182  0.7924  0.1875 -0.8435
18062SOL     OW55626   6.713   1.859   4.605 -0.2865 -0.0071 -0.4604
18062SOL    HW155627   6.746   1.776   4.640 -1.2796 -0.0275  0.5052
18062SOL    HW255628   6.711   1.917   4.681  0.4208  0.9162 -1.1314
18063SOL     OW55629   4.973   0.633   3.176  0.0131  0.6682  0.1296
18063SOL    HW155630   5.015   0.658   3.258  0.0670  1.3021 -0.0896
18063SOL    HW255631   4.994   0.540   3.166  2.0732  1.1211 -0.3679
18064SOL     OW55632   6.666   1.916   3.144 -0.1517 -0.1107 -0.0800
18064SOL    HW155633   6.631   1.832   3.173 -1.0216  0.3714  0.2792
18064SOL    HW255634   6.592   1.977   3.149  1.3506  1.7456  3.8639
18065SOL     OW55635   6.595   1.714   5.692 -0.0309 -0.5570  0.0529
18065SOL    HW155636   6.653   1.786   5.719 -0.5794  0.3948 -1.2267
18065SOL    HW255637   6.585   1.661   5.771  1.1229  0.2578  0.7838
18066SOL     OW55638   0.011   7.704   6.318 -0.0514  0.4004 -0.2504
18066SOL    HW155639   0.029   7.616   6.285  0.1374 -0.0232  0.9113
18066SOL    HW255640  -0.077   7.697   6.357 -1.3782  1.5465 -2.8124
18067SOL     OW55641   7.842   1.586   3.602  0.3354 -0.1035  0.4771
18067SOL    HW155642   7.823   1.501   3.562  0.1375  0.5600 -0.8726
18067SOL    HW255643   7.760   1.609   3.647  0.5557 -0.8398  1.3027
18068SOL     OW55644   5.234   2.305   6.166 -0.7151  0.4053 -0.4605
18068SOL    HW155645   5.150   2.341   6.137 -0.6903  0.7976 -0.0647
18068SOL    HW255646   5.292   2.381   6.173 -0.5905  0.2628  0.1489
18069SOL     OW55647   4.883   0.602   4.710  0.2287  0.4317  0.0593
18069SOL    HW155648   4.824   0.543   4.757 -1.0171  1.5150 -0.0706
18069SOL    HW255649   4.964   0.600   4.761  0.3554 -1.6440 -0.1643
18070SOL     OW55650   6.968   2.827   4.985 -0.2208 -0.7261 -0.0016
18070SOL    HW155651   6.888   2.775   4.992 -0.1192 -0.8765  0.0698
18070SOL    HW255652   6.981   2.863   5.073 -2.5874  2.9247 -0.9494
18071SOL     OW55653   5.822   0.196   5.465  0.1341  0.3426  0.5331
18071SOL    HW155654   5.793   0.108   5.440  1.5832 -0.1811  0.5794
18071SOL    HW255655   5.853   0.185   5.556 -1.6609  1.3978  1.3111
18072SOL     OW55656   7.748   1.335   3.543  0.1966  0.6017  0.4672
18072SOL    HW155657   7.680   1.317   3.478  0.3588  0.3113  0.3740
18072SOL    HW255658   7.710   1.305   3.626  0.4247 -0.0841  0.3278
18073SOL     OW55659   5.583   1.715   3.585  0.9398  0.5545  0.3170
18073SOL    HW155660   5.515   1.782   3.572  1.8145  1.3779 -0.1618
18073SOL    HW255661   5.664   1.759   3.559  1.4504 -0.9308 -0.7144
18074SOL     OW55662   6.158   1.596   3.072  0.5495 -0.7326  0.1126
18074SOL    HW155663   6.161   1.638   3.158 -0.3583 -1.3700  0.4692
18074SOL    HW255664   6.203   1.657   3.014 -0.9813  0.8848  0.5510
18075SOL     OW55665   5.739   2.285   4.823  0.9706  0.0980  0.1258
18075SOL    HW155666   5.672   2.340   4.782  0.0553 -1.6899 -0.8716
18075SOL    HW255667   5.813   2.345   4.837  0.1484  1.5090 -1.2207
18076SOL     OW55668   4.767   0.860   3.155  0.5424  0.5678 -0.5497
18076SOL    HW155669   4.687   0.812   3.176 -0.6326  2.1822 -1.0809
18076SOL    HW255670   4.780   0.919   3.230  0.2656  1.4693 -1.1884
18077SOL     OW55671   7.414   1.598   5.225 -0.2132  0.5480  0.3371
18077SOL    HW155672   7.440   1.516   5.266  0.6821  0.6956  0.0838
18077SOL    HW255673   7.374   1.649   5.295  0.2669  0.3495  0.7546
18078SOL     OW55674   6.261   2.243   4.955 -1.0124  0.0587 -0.0549
18078SOL    HW155675   6.215   2.265   5.036  0.0286 -0.4904  0.7101
18078SOL    HW255676   6.200   2.267   4.886 -2.4048 -0.5291  0.9124
18079SOL     OW55677   7.492   1.106   6.202 -0.2469  0.1746  0.1083
18079SOL    HW155678   7.497   1.200   6.215  0.0399  0.0559  0.8980
18079SOL    HW255679   7.411   1.080   6.247 -0.6820  0.1331 -0.6815
18080SOL     OW55680   5.753   0.858   4.788 -0.7330  0.2442 -0.1491
18080SOL    HW155681   5.818   0.845   4.858 -1.1293  1.7246  0.5253
18080SOL    HW255682   5.735   0.769   4.757  1.1862 -0.2596  0.0188
18081SOL     OW55683   6.543   2.853   4.619 -0.4632  0.0907 -0.2438
18081SOL    HW155684   6.495   2.812   4.547  1.3562 -2.4947 -0.0982
18081SOL    HW255685   6.480   2.859   4.690 -2.1367  2.1503 -1.7677
18082SOL     OW55686   4.771   0.909   4.724 -0.6167  0.6311 -0.2395
18082SOL    HW155687   4.859   0.941   4.744 -0.6287  0.3470  0.2804
18082SOL    HW255688   4.780   0.814   4.721 -0.8319  0.6177 -0.5583
18083SOL     OW55689   7.300   1.335   3.850  0.2804 -0.2356 -0.5502
18083SOL    HW155690   7.240   1.389   3.799  0.7675  1.3307  0.4730
18083SOL    HW255691   7.248   1.259   3.876 -1.3872  1.2367  0.6049
18084SOL     OW55692   6.369   2.033   4.803 -0.4424 -0.1955  0.3298
18084SOL    HW155693   6.460   2.034   4.833 -0.9571 -1.5522  2.1483
18084SOL    HW255694   6.328   2.105   4.850 -0.2699  0.5972 -0.7099
18085SOL     OW55695   6.277   1.537   4.743  0.5817  0.1467  0.2529
18085SOL    HW155696   6.190   1.515   4.777  0.1079  1.4057 -0.0849
18085SOL    HW255697   6.259   1.584   4.661  1.6001  0.0639 -0.0299
18086SOL     OW55698   6.716   6.845   3.156 -0.2908  0.3087  0.3583
18086SOL    HW155699   6.649   6.777   3.161 -0.1454  0.2346  1.5259
18086SOL    HW255700   6.780   6.810   3.094  1.1760 -1.9423  2.9320
18087SOL     OW55701   6.330   0.471   4.011 -0.4134 -0.0767 -0.1598
18087SOL    HW155702   6.271   0.502   4.079 -1.6208 -1.6009 -0.4666
18087SOL    HW255703   6.323   0.536   3.941 -0.5630  0.5383  0.4258
18088SOL     OW55704   5.423   1.797   5.800  0.4647  0.2345 -0.3489
18088SOL    HW155705   5.356   1.752   5.851  0.8316 -0.2533 -0.2790
18088SOL    HW255706   5.459   1.729   5.742  0.2575  0.7084 -1.0487
18089SOL     OW55707   6.756   3.255   4.946 -0.1539  0.1435 -0.5318
18089SOL    HW155708   6.730   3.215   4.863  1.5183  1.5756 -1.8388
18089SOL    HW255709   6.719   3.344   4.941 -0.0653  0.2247  0.2648
18090SOL     OW55710   7.356   1.607   4.946  0.3579 -0.6536 -0.4302
18090SOL    HW155711   7.383   1.588   5.036  1.1313  1.2755 -0.1992
18090SOL    HW255712   7.268   1.571   4.939  0.2030 -0.6552  1.1566
18091SOL     OW55713   6.020   1.484   6.507  0.1543  0.2506 -0.0997
18091SOL    HW155714   5.944   1.436   6.540  1.1449 -0.9161  0.5734
18091SOL    HW255715   5.987   1.572   6.490 -1.3522 -0.2335  0.1276
18092SOL     OW55716   7.568   2.063   3.215  0.1948 -0.3598  0.0343
18092SOL    HW155717   7.508   2.137   3.222 -0.3537 -0.7876 -0.0583
18092SOL    HW255718   7.586   2.054   3.121  1.7987  0.8492  0.1861
18093SOL     OW55719   6.734   1.824   4.259 -0.2117 -0.9090  0.3018
18093SOL    HW155720   6.758   1.833   4.166  2.0179 -1.2887  0.7662
18093SOL    HW255721   6.748   1.731   4.277 -0.6912 -0.8444  1.0146
18094SOL     OW55722   6.094   0.914   3.947 -0.1160 -0.4115 -0.6381
18094SOL    HW155723   6.041   0.991   3.966  1.5309  0.6067  0.0596
18094SOL    HW255724   6.164   0.947   3.890  2.5195 -0.5828  2.2612
18095SOL     OW55725   7.136   0.560   4.713  0.3056  0.2821 -0.1361
18095SOL    HW155726   7.061   0.603   4.672 -0.6488  0.0091  1.2488
18095SOL    HW255727   7.187   0.525   4.640 -2.3377 -1.9059 -1.0842
18096SOL     OW55728   6.968   1.885   4.462 -0.2932  0.0490 -0.0734
18096SOL    HW155729   6.879   1.921   4.467  0.4729  1.8632  1.3759
18096SOL    HW255730   7.025   1.958   4.486  1.5085 -1.4849  0.5132
18097SOL     OW55731   6.653   7.502   4.175 -0.2493 -0.6778 -0.2064
18097SOL    HW155732   6.727   7.494   4.114 -0.6631 -1.2488 -0.6445
18097SOL    HW255733   6.602   7.423   4.160 -1.5871  0.2589 -0.7583
18098SOL     OW55734   6.717   7.272   6.521  0.8032  0.3609  0.1624
18098SOL    HW155735   6.754   7.356   6.550  1.6676 -0.7207  2.3826
18098SOL    HW255736   6.652   7.251   6.587 -0.4127 -0.0963 -1.1362
18099SOL     OW55737   4.619   1.899   6.223 -0.0126  0.1653  0.0986
18099SOL    HW155738   4.663   1.835   6.279  0.6225  1.6096  1.3399
18099SOL    HW255739   4.677   1.910   6.148 -0.0736 -0.6198 -0.0636
18100SOL     OW55740   7.735   1.186   6.099 -0.3976 -0.8501  0.2620
18100SOL    HW155741   7.743   1.277   6.128  1.0335 -1.0573  0.6215
18100SOL    HW255742   7.655   1.154   6.140 -0.4817  0.0163  0.8023
18101SOL     OW55743   6.275   1.799   3.771 -0.0892 -0.6889  0.2659
18101SOL    HW155744   6.252   1.883   3.730 -0.0235 -0.6207  0.3658
18101SOL    HW255745   6.194   1.748   3.769 -0.3975 -0.2563  1.0850
18102SOL     OW55746   5.662   1.448   4.995 -0.0430 -0.3701 -0.3935
18102SOL    HW155747   5.714   1.438   4.915  1.7729  0.3805  0.6413
18102SOL    HW255748   5.703   1.390   5.059  1.2768  2.1358  1.2230
18103SOL     OW55749   5.527   2.784   4.078 -0.3229  0.1617 -0.0252
18103SOL    HW155750   5.566   2.871   4.085 -1.0654  0.4179  1.3302
18103SOL    HW255751   5.437   2.795   4.110 -0.7886 -0.8715 -0.9175
18104SOL     OW55752   6.328   1.437   3.399 -0.2622 -0.8312  0.4540
18104SOL    HW155753   6.321   1.397   3.313  1.5742  0.0577 -0.1570
18104SOL    HW255754   6.274   1.382   3.456 -0.9344 -1.8376 -1.1060
18105SOL     OW55755   7.451   2.160   5.764  0.2067  0.1989  0.5326
18105SOL    HW155756   7.425   2.163   5.672 -1.4626  2.0724  1.0070
18105SOL    HW255757   7.524   2.222   5.770  0.3995 -0.0198  0.4548
18106SOL     OW55758   6.980   0.897   3.840 -0.3773 -0.0143 -0.3525
18106SOL    HW155759   6.910   0.947   3.881 -1.1580 -1.2247 -0.1631
18106SOL    HW255760   7.007   0.951   3.766 -0.0481  1.4486  0.7670
18107SOL     OW55761   4.570   1.422   5.471  0.5625  0.1034 -0.5521
18107SOL    HW155762   4.641   1.424   5.406  0.6083  0.5399 -0.4951
18107SOL    HW255763   4.581   1.504   5.520  1.0518 -0.6296  0.5852
18108SOL     OW55764   5.411   1.372   4.353  0.1474 -0.3336  0.1822
18108SOL    HW155765   5.429   1.432   4.280  0.4304 -0.4854  0.1268
18108SOL    HW255766   5.430   1.285   4.319  0.0498 -0.4285  0.3647
18109SOL     OW55767   6.801   3.293   4.417  0.4252  0.2473 -0.0357
18109SOL    HW155768   6.864   3.341   4.471  0.2647 -0.5400  0.8994
18109SOL    HW255769   6.797   3.206   4.459 -1.6132  0.4267  0.2152
18110SOL     OW55770   1.114   1.129   5.455  0.3137 -0.0683  0.6800
18110SOL    HW155771   1.150   1.048   5.492 -0.4788 -0.8695 -0.2334
18110SOL    HW255772   1.127   1.120   5.361 -1.8159 -0.2222  0.3367
18111SOL     OW55773   7.961   1.692   6.552  0.1378  0.0957  0.3195
18111SOL    HW155774   7.871   1.684   6.521 -0.3053  2.6935  0.7348
18111SOL    HW255775   7.955   1.680   6.647 -0.0571  1.7083  0.5426
18112SOL     OW55776   6.248   0.802   5.510 -0.4796  0.3483  0.2395
18112SOL    HW155777   6.165   0.765   5.541 -1.0028  0.4213 -0.9840
18112SOL    HW255778   6.271   0.747   5.435  1.1329 -0.3159  1.1809
18113SOL     OW55779   7.379   1.597   3.194  0.0626 -0.5920  0.5324
18113SOL    HW155780   7.345   1.552   3.271 -0.5174  1.1673  1.3626
18113SOL    HW255781   7.423   1.675   3.229 -1.7707  1.2222 -0.9785
18114SOL     OW55782   6.736   1.345   5.810  0.0722 -0.5540  0.1565
18114SOL    HW155783   6.719   1.385   5.896  0.1082 -1.3309  0.5312
18114SOL    HW255784   6.776   1.415   5.759  0.4206 -0.2001  0.9013
18115SOL     OW55785   7.550   1.095   5.088 -0.1544  0.4600  0.4166
18115SOL    HW155786   7.485   1.159   5.059 -0.4304  0.6514  1.4495
18115SOL    HW255787   7.558   1.034   5.014 -0.2964  1.3552 -0.3557
18116SOL     OW55788   5.789   7.087   5.136 -0.5917  0.0333 -0.3723
18116SOL    HW155789   5.848   7.045   5.199 -2.5793 -1.1672  0.8342
18116SOL    HW255790   5.718   7.123   5.191 -1.1025  1.2240 -1.7570
18117SOL     OW55791   6.889   2.576   3.308  0.1079 -0.4720  0.3870
18117SOL    HW155792   6.870   2.521   3.233  0.5445 -0.0031 -0.0768
18117SOL    HW255793   6.886   2.665   3.274  1.4375 -0.3037  0.6641
18118SOL     OW55794   5.543   1.352   5.496 -0.0526 -0.2782  0.4625
18118SOL    HW155795   5.490   1.273   5.501  0.3067 -0.5083  0.6567
18118SOL    HW255796   5.586   1.347   5.411 -0.2800 -0.1318  0.3388
18119SOL     OW55797   7.568   7.734   3.827  0.0647  0.1385 -0.1440
18119SOL    HW155798   7.653   7.706   3.862  0.9471 -0.0238 -2.2580
18119SOL    HW255799   7.510   7.661   3.846  0.3917  0.1997  1.2311
18120SOL     OW55800   5.596   1.757   4.376 -0.1642 -0.3050  0.0123
18120SOL    HW155801   5.574   1.843   4.342 -1.4706 -0.8894 -0.7302
18120SOL    HW255802   5.625   1.708   4.299  0.0586 -0.6767  0.3285
18121SOL     OW55803   7.213   1.847   3.926  0.1797 -0.0630 -0.2043
18121SOL    HW155804   7.205   1.842   3.831  2.7408 -0.2357 -0.4824
18121SOL    HW255805   7.166   1.927   3.950 -0.4999 -0.0238 -1.6237
18122SOL     OW55806   6.698   0.963   5.029  0.2846 -0.4096  0.2761
18122SOL    HW155807   6.783   1.006   5.025  0.7605 -1.3977 -1.2412
18122SOL    HW255808   6.658   0.996   5.110  0.7118  2.5701 -0.6148
18123SOL     OW55809   7.338   2.108   6.404  0.2497  0.0451 -0.2522
18123SOL    HW155810   7.364   2.068   6.321 -0.8980 -2.0402  0.3026
18123SOL    HW255811   7.293   2.037   6.451 -0.2939  1.5383  1.5993
18124SOL     OW55812   6.167   7.911   3.935 -0.4761 -0.3050  0.2180
18124SOL    HW155813   6.136   7.993   3.974  0.0246 -0.7056  1.5265
18124SOL    HW255814   6.227   7.875   4.000  0.2595 -1.1174 -0.8700
18125SOL     OW55815   6.636   0.288   4.997  0.6130 -0.4378  0.4547
18125SOL    HW155816   6.609   0.366   5.044  1.5973 -0.6890  1.4861
18125SOL    HW255817   6.675   0.320   4.916  0.8531  0.1417  0.7958
18126SOL     OW55818   5.565   1.832   4.936 -0.0086 -0.1425  0.1099
18126SOL    HW155819   5.575   1.923   4.965  2.5697  0.2254 -1.6408
18126SOL    HW255820   5.654   1.802   4.918 -0.9202 -2.5156 -0.8524
18127SOL     OW55821   7.104   1.660   4.610 -0.3061 -0.1185 -0.1294
18127SOL    HW155822   7.050   1.671   4.688 -0.7616 -0.1043 -0.4395
18127SOL    HW255823   7.061   1.715   4.544  1.7190  2.2469  0.3940
18128SOL     OW55824   6.600   1.090   5.698  0.2931  0.6740 -0.1502
18128SOL    HW155825   6.625   1.180   5.721  0.4883  0.5624  0.0671
18128SOL    HW255826   6.507   1.096   5.677  0.2643  0.8939  0.0382
18129SOL     OW55827   7.147   0.459   4.966  0.2111 -0.6496 -0.0936
18129SOL    HW155828   7.134   0.493   4.878 -2.9141  0.8041  0.7672
18129SOL    HW255829   7.225   0.504   4.998  0.6517 -0.2418 -1.6702
18130SOL     OW55830   7.804   2.021   4.012 -0.6566 -0.0164  0.3058
18130SOL    HW155831   7.714   2.032   4.043 -1.5143  2.4044 -2.6159
18130SOL    HW255832   7.848   2.102   4.037 -0.2077  0.1819 -1.0873
18131SOL     OW55833   4.628   1.091   3.857 -0.2284 -0.3033 -0.5385
18131SOL    HW155834   4.606   1.040   3.779  0.8304 -0.2971 -0.8570
18131SOL    HW255835   4.603   1.181   3.836  1.2267 -0.0663 -1.3971
18132SOL     OW55836   7.494   7.126   4.358 -0.0056 -0.3722  0.4149
18132SOL    HW155837   7.502   7.079   4.441  1.1379 -1.1234 -0.0946
18132SOL    HW255838   7.536   7.210   4.375  0.4922 -0.6349  0.5280
18133SOL     OW55839   6.656   7.737   6.543 -0.4177  0.1886  0.1509
18133SOL    HW155840   6.665   7.827   6.576 -2.3387 -0.0672  1.5585
18133SOL    HW255841   6.675   7.682   6.620 -2.1569 -0.5068  0.1251
18134SOL     OW55842   5.979   1.701   3.843 -0.1158 -0.0819  0.2235
18134SOL    HW155843   6.012   1.741   3.924 -2.2660 -1.2786  1.8048
18134SOL    HW255844   5.886   1.723   3.841 -0.1576 -0.2086 -1.8959
18135SOL     OW55845   6.482   1.791   3.977 -0.4268  0.4622  0.2540
18135SOL    HW155846   6.419   1.786   3.906  0.7699  0.3439 -0.8474
18135SOL    HW255847   6.568   1.789   3.933  0.3469  0.3798  1.6963
18136SOL     OW55848   7.285   0.784   3.641  0.2957 -0.0927  0.0684
18136SOL    HW155849   7.271   0.689   3.631  0.4273 -0.1355  0.2833
18136SOL    HW255850   7.378   0.797   3.618  0.6370 -0.2097  1.3145
18137SOL     OW55851   5.438   1.124   5.611  0.2082  0.1569  0.3863
18137SOL    HW155852   5.445   1.125   5.706  3.3024 -0.0360  0.2483
18137SOL    HW255853   5.406   1.036   5.591 -1.4157  0.5136  1.2324
18138SOL     OW55854   7.865   0.903   4.388 -0.4055  0.0691  0.6640
18138SOL    HW155855   7.859   0.839   4.459 -0.9820 -0.9882 -0.3168
18138SOL    HW255856   7.947   0.883   4.344 -1.8393 -1.8143 -1.3052
18139SOL     OW55857   7.567   1.249   3.788 -0.4069 -0.7401 -0.0076
18139SOL    HW155858   7.606   1.218   3.869 -1.1263 -1.3587  0.1088
18139SOL    HW255859   7.480   1.278   3.813 -0.0539  0.6233 -0.2684
18140SOL     OW55860   7.507   0.262   3.620 -0.3604 -0.5447 -1.1899
18140SOL    HW155861   7.543   0.174   3.611 -0.4898 -0.5667 -1.5021
18140SOL    HW255862   7.412   0.249   3.624 -0.3405 -0.4847 -0.4050
18141SOL     OW55863   6.546   2.328   4.082 -0.3784  0.3136 -0.1255
18141SOL    HW155864   6.589   2.410   4.057  1.1350 -0.3588  0.1872
18141SOL    HW255865   6.578   2.264   4.019 -1.8573  0.0035 -0.6101
18142SOL     OW55866   7.739   1.177   4.781  0.1772  0.1099 -0.2987
18142SOL    HW155867   7.739   1.166   4.686  0.0931  1.3133 -0.4503
18142SOL    HW255868   7.683   1.106   4.813 -1.2121  0.7127 -1.2809
18143SOL     OW55869   0.130   1.814   4.244  0.1330  0.3255  0.1415
18143SOL    HW155870   0.199   1.864   4.287  0.2147  2.7294 -2.4517
18143SOL    HW255871   0.051   1.867   4.257 -0.2748 -0.0542 -0.7033
18144SOL     OW55872   3.638   1.731   4.440 -0.1125  0.2750 -0.4161
18144SOL    HW155873   3.582   1.708   4.515 -0.9013 -1.3513 -1.4578
18144SOL    HW255874   3.619   1.823   4.424 -1.1409  0.2293  0.3955
18145SOL     OW55875   7.582   1.773   5.705  0.4034  0.2063 -0.4799
18145SOL    HW155876   7.589   1.779   5.609 -0.4446 -0.4227 -0.5921
18145SOL    HW255877   7.510   1.712   5.720  1.1437 -0.4620  0.5651
18146SOL     OW55878   6.524   2.290   3.694  0.0251  0.2740  0.1683
18146SOL    HW155879   6.570   2.331   3.767 -1.6655 -0.3517  1.6470
18146SOL    HW255880   6.588   2.290   3.623  1.4799  1.5826  1.3981
18147SOL     OW55881   6.333   6.998   4.379  0.1247 -0.1185  0.2417
18147SOL    HW155882   6.327   7.060   4.452  1.0256 -0.2734  0.4624
18147SOL    HW255883   6.280   7.038   4.309  0.1924  0.5971  0.5877
18148SOL     OW55884   0.295   0.885   3.543 -0.7506 -0.0065 -0.2886
18148SOL    HW155885   0.200   0.897   3.551 -0.7430  1.0442 -1.5081
18148SOL    HW255886   0.331   0.923   3.624 -1.3280  0.0078 -0.0341
18149SOL     OW55887   7.219   3.346   5.140 -0.3746 -0.0383  0.0454
18149SOL    HW155888   7.180   3.273   5.091 -0.0242 -0.2189  0.0310
18149SOL    HW255889   7.310   3.319   5.154 -0.6375 -0.2833  1.3866
18150SOL     OW55890   0.281   1.620   4.137 -0.5701  0.7705  0.3281
18150SOL    HW155891   0.218   1.677   4.180  0.1322  0.7453  1.4510
18150SOL    HW255892   0.245   1.532   4.147 -0.6397  0.8152  0.4714
18151SOL     OW55893   7.282   1.446   3.409 -0.2898 -0.5072  0.3657
18151SOL    HW155894   7.290   1.489   3.495 -0.9689  1.7808 -0.6425
18151SOL    HW255895   7.188   1.432   3.399 -0.0976 -2.0719  0.5558
18152SOL     OW55896   7.628   1.758   4.875 -0.2280  0.0386 -0.0835
18152SOL    HW155897   7.699   1.817   4.850  0.5503 -0.5240  0.7251
18152SOL    HW255898   7.671   1.675   4.894 -1.3254 -0.8435 -1.3212
18153SOL     OW55899   7.141   1.080   5.007 -0.2513  0.0934  0.1538
18153SOL    HW155900   7.194   1.109   4.933  0.6274  0.8026  1.0257
18153SOL    HW255901   7.122   0.989   4.988  0.4481  0.0990 -0.6668
18154SOL     OW55902   6.076   0.917   4.487  0.2651 -0.5256 -0.2363
18154SOL    HW155903   6.021   0.862   4.431  1.4452 -0.2415 -1.7168
18154SOL    HW255904   6.145   0.858   4.518 -0.2859 -0.6399  0.8250
18155SOL     OW55905   6.907   2.835   4.390 -0.0081  0.3034 -0.7766
18155SOL    HW155906   6.841   2.797   4.333 -1.0081  0.2480  0.3793
18155SOL    HW255907   6.963   2.762   4.415  0.3752  0.3120 -1.5955
18156SOL     OW55908   6.254   1.062   4.914 -0.7776 -0.3143 -0.1812
18156SOL    HW155909   6.236   1.073   4.820  0.2766 -1.0778 -0.4932
18156SOL    HW255910   6.301   1.142   4.938  1.0050 -1.1015 -0.8787
18157SOL     OW55911   6.256   7.237   3.336 -0.3557 -0.0287  0.4256
18157SOL    HW155912   6.324   7.228   3.402  0.3327 -0.6296 -0.3455
18157SOL    HW255913   6.241   7.148   3.305 -1.3714  0.1179  0.4554
18158SOL     OW55914   7.473   2.422   4.386 -0.1331  0.2658 -0.1049
18158SOL    HW155915   7.454   2.328   4.384 -2.1614  0.6389 -0.9942
18158SOL    HW255916   7.422   2.456   4.459  2.4974  0.3964  1.8164
18159SOL     OW55917   5.993   2.750   4.884  1.1569 -0.3875 -0.4688
18159SOL    HW155918   6.059   2.762   4.816  2.3530 -2.5444  0.2150
18159SOL    HW255919   6.027   2.796   4.960 -0.2385  2.1290 -1.2453
18160SOL     OW55920   7.694   1.077   4.511  0.2238 -0.3200  0.0346
18160SOL    HW155921   7.764   1.025   4.472  0.3010  0.4174 -0.8598
18160SOL    HW255922   7.615   1.053   4.462  0.1329 -0.0789  0.0600
18161SOL     OW55923   5.040   0.970   2.750 -0.3688 -0.3533 -0.6914
18161SOL    HW155924   5.062   0.939   2.837 -1.7443 -0.7788 -0.4609
18161SOL    HW255925   4.945   0.983   2.753 -0.3656  0.0997 -1.9742
18162SOL     OW55926   6.971   2.993   5.450 -0.3627 -0.0638 -0.1938
18162SOL    HW155927   6.961   3.087   5.467 -0.7284 -0.1205 -0.0933
18162SOL    HW255928   7.010   2.988   5.363 -2.8846  0.1278 -1.4297
18163SOL     OW55929   5.271   1.134   3.950  0.5868  0.3235 -0.4467
18163SOL    HW155930   5.274   1.228   3.964  2.2135  0.2661 -0.1773
18163SOL    HW255931   5.296   1.096   4.034 -0.6458 -0.3821 -0.3782
18164SOL     OW55932   7.023   0.745   6.837 -0.6602  0.2859 -0.0864
18164SOL    HW155933   6.962   0.811   6.869  0.6633  0.8110  1.4563
18164SOL    HW255934   7.097   0.795   6.804  0.1539 -0.4135  0.6641
18165SOL     OW55935   6.442   0.605   5.820  0.3410 -0.1751  0.8928
18165SOL    HW155936   6.495   0.672   5.862  0.4940  0.1810  0.1435
18165SOL    HW255937   6.470   0.605   5.728 -0.0759 -0.8454  0.7562
18166SOL     OW55938   0.411   2.613   4.415  0.0045  0.1400 -0.1839
18166SOL    HW155939   0.343   2.610   4.483  0.1819  0.0002 -0.0136
18166SOL    HW255940   0.362   2.605   4.333  0.0057 -2.7332  0.0157
18167SOL     OW55941   0.307   0.250   5.144 -0.0029 -0.1902 -0.6058
18167SOL    HW155942   0.260   0.183   5.096 -1.1585  0.0805  0.0968
18167SOL    HW255943   0.239   0.294   5.196  1.2208 -0.8631  1.7369
18168SOL     OW55944   6.662   6.659   5.415  0.5122  0.0839 -0.1484
18168SOL    HW155945   6.671   6.743   5.370 -0.3501  0.3374  0.1247
18168SOL    HW255946   6.575   6.628   5.390  0.0843  0.1470  1.1922
18169SOL     OW55947   6.115   0.146   3.725 -0.7578  0.2098 -0.2499
18169SOL    HW155948   6.196   0.144   3.776 -1.3718 -1.1685  0.7163
18169SOL    HW255949   6.144   0.140   3.634  0.1992 -3.5270  0.1517
18170SOL     OW55950   6.481   1.668   3.683  0.0870  0.5792  0.6306
18170SOL    HW155951   6.408   1.704   3.733 -0.5406 -1.3665  1.2282
18170SOL    HW255952   6.506   1.589   3.732  2.4006  1.0111  0.2698
18171SOL     OW55953   6.015   1.501   5.065  0.2197  0.3056 -0.1500
18171SOL    HW155954   6.014   1.512   4.970 -0.6321 -1.1943 -0.3545
18171SOL    HW255955   5.923   1.504   5.090  0.3583 -0.3345  0.4690
18172SOL     OW55956   7.823   7.022   4.391  0.0736 -0.6274 -0.0012
18172SOL    HW155957   7.819   6.930   4.365  1.2299 -0.3132 -1.4126
18172SOL    HW255958   7.765   7.067   4.329 -0.5473 -0.4007  0.7329
18173SOL     OW55959   5.661   1.921   7.106 -0.1707  0.7691  0.3797
18173SOL    HW155960   5.599   1.901   7.176  0.3694 -1.3889  0.3022
18173SOL    HW255961   5.608   1.964   7.039 -1.3698 -0.0688  0.7611
18174SOL     OW55962   6.878   1.654   5.333  0.5482 -0.2040 -0.0949
18174SOL    HW155963   6.856   1.662   5.239 -1.1616  2.5179  0.3871
18174SOL    HW255964   6.879   1.745   5.364  0.2801 -1.0665  2.6895
18175SOL     OW55965   7.170   0.222   6.619 -0.1960  0.1860  0.4802
18175SOL    HW155966   7.246   0.180   6.579  0.6861  1.4811  0.7294
18175SOL    HW255967   7.111   0.150   6.639  0.6676 -0.7889 -0.3303
18176SOL     OW55968   5.849   0.811   2.912  0.0699  0.0449 -0.1446
18176SOL    HW155969   5.760   0.807   2.947  0.0153 -3.4423 -0.3256
18176SOL    HW255970   5.903   0.768   2.979  1.9590  3.1487  0.5398
18177SOL     OW55971   6.436   2.116   2.368  0.2693  0.1429  0.6676
18177SOL    HW155972   6.385   2.147   2.443 -2.2260 -0.0248 -0.8254
18177SOL    HW255973   6.414   2.177   2.298  0.4316 -1.2244 -0.6133
18178SOL     OW55974   6.680   0.749   2.872 -0.2810  0.4287 -0.4169
18178SOL    HW155975   6.609   0.808   2.844 -0.4979  0.2803 -0.1791
18178SOL    HW255976   6.741   0.750   2.799 -0.0685  1.2900 -0.2497
18179SOL     OW55977   7.900   2.656   5.386  0.4187 -0.1400 -0.3430
18179SOL    HW155978   7.866   2.580   5.339  0.6169  1.2236 -2.8512
18179SOL    HW255979   7.828   2.720   5.384  1.3147  0.8876 -1.1605
18180SOL     OW55980   0.207   0.923   4.051  0.1675 -0.1036 -0.0119
18180SOL    HW155981   0.189   0.975   3.972  1.4740 -0.7232 -0.7351
18180SOL    HW255982   0.289   0.958   4.084  0.4152 -0.8864  0.2029
18181SOL     OW55983   5.416   0.647   4.995  0.1183  0.4590 -0.0116
18181SOL    HW155984   5.463   0.568   5.022  0.2391 -0.0488 -1.5592
18181SOL    HW255985   5.324   0.629   5.017  0.2154  0.0826  0.0881
18182SOL     OW55986   0.346   0.580   3.030  1.1126 -0.6240 -0.1709
18182SOL    HW155987   0.260   0.539   3.036 -0.2192  1.5886 -2.0817
18182SOL    HW255988   0.356   0.626   3.113 -0.1766  0.0970 -0.3826
18183SOL     OW55989   6.732   2.017   3.408  0.3802 -0.1242  0.2720
18183SOL    HW155990   6.656   1.973   3.446  1.8887 -2.2484  0.9920
18183SOL    HW255991   6.727   1.997   3.315  0.0823 -0.2855  0.3217
18184SOL     OW55992   4.771   1.015   5.230  0.1151  0.6479 -0.2939
18184SOL    HW155993   4.723   1.048   5.154 -0.0781 -0.7285 -0.7887
18184SOL    HW255994   4.705   1.008   5.299  0.0741  0.8752 -0.3073
18185SOL     OW55995   6.413   1.307   3.164  0.0548  0.0053  0.4007
18185SOL    HW155996   6.353   1.276   3.096  1.1796 -2.7960  0.5346
18185SOL    HW255997   6.485   1.244   3.162  1.9904  2.0346  1.6650
18186SOL     OW55998   6.673   0.391   3.792  0.0443  0.4138  0.3207
18186SOL    HW155999   6.674   0.394   3.888  1.2093  0.8416  0.3012
18186SOL    HW256000   6.647   0.479   3.766  1.6721  0.8830  0.2259
18187SOL     OW56001   7.625   2.341   4.692  0.0399 -0.0248 -0.2627
18187SOL    HW156002   7.574   2.342   4.611 -1.1688  1.5070  0.4726
18187SOL    HW256003   7.716   2.332   4.662 -0.4183  0.0163 -1.7587
18188SOL     OW56004   7.909   1.567   5.342  0.2715  0.8509  0.3432
18188SOL    HW156005   7.818   1.547   5.365  0.0227  1.0731 -0.3870
18188SOL    HW256006   7.908   1.659   5.317  0.9015  1.1184  1.2577
18189SOL     OW56007   4.468   0.919   4.575  0.4637  0.0865  0.1707
18189SOL    HW156008   4.461   0.951   4.485 -1.1254  0.9335  0.5623
18189SOL    HW256009   4.548   0.866   4.575  1.1367  1.0236 -1.4341
18190SOL     OW56010   3.929   0.546   5.940  0.2039 -0.0420 -0.0542
18190SOL    HW156011   3.871   0.473   5.918  0.9642 -1.1049  1.2972
18190SOL    HW256012   3.928   0.602   5.863 -0.0926 -1.6901 -1.2888
18191SOL     OW56013   5.271   2.309   4.711 -0.5327  0.1912 -0.2401
18191SOL    HW156014   5.353   2.334   4.753  0.1702 -1.5599 -0.5034
18191SOL    HW256015   5.202   2.348   4.766  0.4094 -0.1971  1.2451
18192SOL     OW56016   7.058   1.310   6.155 -0.2459  0.1904 -0.0811
18192SOL    HW156017   7.079   1.316   6.249  0.4712 -0.1037 -0.2153
18192SOL    HW256018   7.036   1.218   6.141 -0.4499  0.2543 -0.1825
18193SOL     OW56019   5.907   0.032   6.042 -0.6198 -0.0278 -0.3397
18193SOL    HW156020   5.962   0.044   6.119  0.4946  0.3308 -1.1512
18193SOL    HW256021   5.829   0.084   6.059 -0.5174 -0.1881  0.6622
18194SOL     OW56022   6.517   0.583   4.739  0.2696  0.5219  0.1936
18194SOL    HW156023   6.435   0.616   4.703  0.3004 -1.2084 -1.6393
18194SOL    HW256024   6.585   0.639   4.700  0.0794  0.8941  0.3930
18195SOL     OW56025   6.548   0.982   5.266  0.0936 -0.2850 -0.0214
18195SOL    HW156026   6.477   1.041   5.244  0.7986  0.2773 -0.8449
18195SOL    HW256027   6.611   1.036   5.315 -1.0496 -1.3021  2.8123
18196SOL     OW56028   6.989   0.658   4.463 -0.2694  0.8078 -0.3262
18196SOL    HW156029   6.912   0.638   4.516 -0.3318  1.2055 -0.2628
18196SOL    HW256030   6.956   0.664   4.373 -0.0183 -0.7603 -0.5589
18197SOL     OW56031   6.720   1.011   4.209  0.7900 -0.2509  0.1443
18197SOL    HW156032   6.807   1.020   4.248  0.9867  0.1345 -0.3654
18197SOL    HW256033   6.685   0.929   4.244  0.9157  0.1443  1.2023
18198SOL     OW56034   5.167   1.080   6.453  0.8287  0.0616 -0.0703
18198SOL    HW156035   5.176   0.987   6.474  0.1019  0.0615  0.2880
18198SOL    HW256036   5.199   1.087   6.363  0.4240 -0.6374 -0.2853
18199SOL     OW56037   0.111   0.425   5.207  0.3001  0.4358  0.3240
18199SOL    HW156038   0.023   0.454   5.234  0.3281  1.1300 -0.2945
18199SOL    HW256039   0.169   0.494   5.238  0.5700  0.2267  0.2875
18200SOL     OW56040   6.751   0.339   4.729 -0.5813  0.1562 -0.2692
18200SOL    HW156041   6.769   0.415   4.673 -0.8350 -0.1279 -0.7340
18200SOL    HW256042   6.693   0.283   4.677 -1.3448  0.1897  0.5062
18201SOL     OW56043   6.373   0.645   3.780  0.1445 -0.2866  0.8531
18201SOL    HW156044   6.448   0.694   3.814  2.5804 -2.9819 -0.2080
18201SOL    HW256045   6.334   0.702   3.714  1.8677  0.8438  0.7485
18202SOL     OW56046   6.899   7.620   6.097 -0.0399  0.4639 -0.1682
18202SOL    HW156047   6.855   7.628   6.181  0.1703  1.8802 -0.1531
18202SOL    HW256048   6.927   7.529   6.092 -0.8436  0.1456  0.8910
18203SOL     OW56049   6.615   3.484   4.862  0.4844 -0.2215  0.3154
18203SOL    HW156050   6.521   3.473   4.873  0.6877 -0.6024  1.9122
18203SOL    HW256051   6.628   3.483   4.767 -1.0067 -1.0903  0.0784
18204SOL     OW56052   5.988   1.039   2.927 -0.5527  0.3337 -0.0672
18204SOL    HW156053   6.041   0.971   2.968 -0.2899 -1.1050 -2.5467
18204SOL    HW256054   5.902   0.998   2.916 -1.2798  1.4926  0.9980
18205SOL     OW56055   6.236   2.349   3.058 -0.3045 -0.0006 -0.0104
18205SOL    HW156056   6.293   2.371   2.984  0.1089  0.0717  0.3259
18205SOL    HW256057   6.263   2.261   3.083 -0.8621 -0.2672 -0.3305
18206SOL     OW56058   7.502   2.418   5.687 -0.4642 -0.7268  0.1367
18206SOL    HW156059   7.433   2.484   5.694  0.3253  0.0617  0.8025
18206SOL    HW256060   7.530   2.421   5.596 -1.3191 -1.0683 -0.1400
18207SOL     OW56061   4.480   1.621   5.190  0.0254 -0.7252  0.1943
18207SOL    HW156062   4.560   1.570   5.177  0.3679 -0.2835  0.5292
18207SOL    HW256063   4.511   1.708   5.214 -0.4951 -1.2680  3.2325
18208SOL     OW56064   6.091   2.699   5.802  0.5918 -0.6748  0.6767
18208SOL    HW156065   6.152   2.765   5.770 -0.9194  0.1470 -0.6827
18208SOL    HW256066   6.105   2.624   5.744  0.1819 -0.4015  0.2116
18209SOL     OW56067   7.105   0.656   3.108 -0.3084  0.0562 -0.7624
18209SOL    HW156068   7.111   0.698   3.193 -0.0790 -1.4959  0.0263
18209SOL    HW256069   7.059   0.719   3.053  0.8391  1.7073  0.0903
18210SOL     OW56070   6.729   1.812   5.104  0.4535  0.4966  0.3020
18210SOL    HW156071   6.646   1.844   5.139  0.1948  2.1314 -1.6606
18210SOL    HW256072   6.707   1.727   5.066 -0.3753  0.9934 -0.3574
18211SOL     OW56073   5.917   2.512   6.048  0.2576 -0.1336 -0.5532
18211SOL    HW156074   5.931   2.498   5.954  0.7203  1.7210 -0.7931
18211SOL    HW256075   5.843   2.572   6.053  0.8679  0.5744  0.2329
18212SOL     OW56076   7.828   1.684   3.914  0.3746  0.1705 -0.3766
18212SOL    HW156077   7.745   1.732   3.909 -0.2450 -0.8115  0.0426
18212SOL    HW256078   7.801   1.592   3.924  1.5226 -0.2422 -0.9902
18213SOL     OW56079   5.595   0.966   2.755 -0.0293  0.0481 -0.1299
18213SOL    HW156080   5.601   0.941   2.847  0.1650 -0.5247 -0.2940
18213SOL    HW256081   5.558   1.054   2.756 -1.8729 -0.6821  0.4362
18214SOL     OW56082   0.788   4.481   4.791  0.3743  1.1406  0.1215
18214SOL    HW156083   0.857   4.439   4.842 -0.1209  0.6033  0.3549
18214SOL    HW256084   0.815   4.573   4.787  0.9495  0.9951  0.4622
18215SOL     OW56085   7.927   2.355   4.116 -0.0652  0.1624  0.0216
18215SOL    HW156086   7.890   2.356   4.027 -0.6216 -0.7567  0.2316
18215SOL    HW256087   7.865   2.404   4.169 -1.3782 -1.8959  0.4980
18216SOL     OW56088   4.999   0.584   5.794  0.1367 -0.6369  0.1172
18216SOL    HW156089   4.975   0.541   5.712  0.4955 -1.5678  0.4984
18216SOL    HW256090   5.080   0.631   5.774 -1.4778  1.9601 -0.9875
18217SOL     OW56091   6.712   1.996   4.834 -0.7580  0.9544 -0.1928
18217SOL    HW156092   6.781   2.033   4.890  0.8105  0.3330 -1.6063
18217SOL    HW256093   6.682   1.918   4.880  0.5639  0.4081 -0.2019
18218SOL     OW56094   6.888   1.189   6.442  0.3749  0.4427 -0.2292
18218SOL    HW156095   6.952   1.257   6.460  0.6354  0.5562 -1.4932
18218SOL    HW256096   6.803   1.230   6.457  0.5244  1.1057 -1.1030
18219SOL     OW56097   6.016   6.898   1.852  0.0962  0.4033 -0.4607
18219SOL    HW156098   6.049   6.808   1.855 -0.3478  0.2587  1.9069
18219SOL    HW256099   6.095   6.951   1.841  0.3554 -0.2293 -2.0007
18220SOL     OW56100   6.890   0.754   2.400  0.3738  0.0021 -0.4804
18220SOL    HW156101   6.874   0.833   2.348 -1.3745 -1.1672 -1.8229
18220SOL    HW256102   6.982   0.733   2.383  0.3421  0.7050 -1.6118
18221SOL     OW56103   6.849   2.286   6.601 -0.3406 -0.1908  0.3757
18221SOL    HW156104   6.760   2.271   6.571  0.6595 -0.9705 -2.4508
18221SOL    HW256105   6.888   2.199   6.606  0.6502  0.2344  0.2474
18222SOL     OW56106   0.291   4.173   2.103  0.3943  0.2406  0.0824
18222SOL    HW156107   0.241   4.098   2.134  1.0175  0.0766  0.7240
18222SOL    HW256108   0.255   4.248   2.150  0.0045  0.2982 -0.3003
18223SOL     OW56109   7.121   2.149   3.293  0.0125 -0.3081 -0.1557
18223SOL    HW156110   7.202   2.195   3.269 -0.1177 -1.1725 -2.5334
18223SOL    HW256111   7.051   2.202   3.255 -0.2599 -1.3916 -1.2390
18224SOL     OW56112   7.199   7.102   3.780 -0.0426 -0.6592 -0.0526
18224SOL    HW156113   7.144   7.106   3.858  0.7450  0.3688  0.4664
18224SOL    HW256114   7.264   7.034   3.799  1.4752  1.0328  1.1143
18225SOL     OW56115   5.869   2.126   5.411 -0.3418 -0.2916 -1.0610
18225SOL    HW156116   5.920   2.045   5.404 -0.3803 -0.5004  0.7277
18225SOL    HW256117   5.798   2.115   5.348  0.7410 -0.8086 -2.2298
18226SOL     OW56118   5.765   1.333   3.786 -0.1365  0.2030 -0.0577
18226SOL    HW156119   5.823   1.343   3.710 -1.0666  1.9580 -0.5913
18226SOL    HW256120   5.741   1.240   3.786  1.0927 -0.1411 -0.9889
18227SOL     OW56121   6.180   1.435   5.480 -0.1161  0.3111 -0.4070
18227SOL    HW156122   6.254   1.399   5.529 -2.0466 -3.2282  0.2789
18227SOL    HW256123   6.156   1.514   5.529  0.2748 -1.0936  2.2959
18228SOL     OW56124   7.460   1.140   5.410  0.1877 -0.1271 -0.0036
18228SOL    HW156125   7.552   1.121   5.392  0.3531  1.3094 -0.8868
18228SOL    HW256126   7.451   1.130   5.505  1.1128 -0.8305  0.0213
18229SOL     OW56127   3.349   1.819   4.654 -0.1730  0.0110 -0.0017
18229SOL    HW156128   3.291   1.862   4.591 -2.1257  1.5087  2.5893
18229SOL    HW256129   3.409   1.888   4.683 -0.0232 -0.3483  0.5677
18230SOL     OW56130   5.794   0.413   5.187  0.7308  0.4475  0.7220
18230SOL    HW156131   5.870   0.468   5.169  1.1456 -0.5966 -0.9372
18230SOL    HW256132   5.739   0.422   5.110  0.0599 -0.2499  1.1080
18231SOL     OW56133   5.835   7.493   4.371  0.5738  0.6290  0.1746
18231SOL    HW156134   5.906   7.545   4.409 -1.2126  1.1725  3.1380
18231SOL    HW256135   5.849   7.404   4.405  0.4889  0.4591 -0.2240
18232SOL     OW56136   6.462   1.088   3.991  0.6066  0.2092  0.4490
18232SOL    HW156137   6.459   1.172   3.945  0.5132  0.1978  0.4341
18232SOL    HW256138   6.410   1.102   4.071  0.5284  0.1439  0.4106
18233SOL     OW56139   6.532   0.269   5.407  0.3805 -0.0749  0.2714
18233SOL    HW156140   6.575   0.204   5.352 -0.2726 -0.0085 -0.3349
18233SOL    HW256141   6.447   0.283   5.366  0.4502  1.0491  0.4690
18234SOL     OW56142   6.606   2.132   4.413 -0.0651  0.2512 -0.0000
18234SOL    HW156143   6.691   2.176   4.405 -0.7646  2.2351  2.2052
18234SOL    HW256144   6.579   2.149   4.504 -1.6436 -2.5936  0.1695
18235SOL     OW56145   7.784   1.310   4.406  0.1336  0.3158 -0.6185
18235SOL    HW156146   7.769   1.231   4.458 -0.1132  0.6238 -0.2111
18235SOL    HW256147   7.720   1.306   4.336 -0.0308  0.2669 -0.4662
18236SOL     OW56148   7.451   1.967   5.420  0.4847 -0.3880  0.3080
18236SOL    HW156149   7.526   1.960   5.361  1.7254 -0.9202  1.8613
18236SOL    HW256150   7.446   2.060   5.441  0.1501 -0.2238 -0.4522
18237SOL     OW56151   7.329   2.854   7.012 -0.1436  0.3838 -0.2636
18237SOL    HW156152   7.338   2.939   6.969  1.8162  0.2630 -0.2179
18237SOL    HW256153   7.416   2.837   7.048  0.1258 -2.5491 -1.9896
18238SOL     OW56154   7.638   7.904   4.113 -0.0891  0.1087  0.1200
18238SOL    HW156155   7.563   7.931   4.060 -0.3896 -1.4348 -0.2680
18238SOL    HW256156   7.600   7.879   4.197  0.0490 -0.2252  0.0815
18239SOL     OW56157   7.964   1.979   3.235  0.0094  0.1392  0.0306
18239SOL    HW156158   7.936   1.916   3.302 -0.9403 -2.1887 -2.3517
18239SOL    HW256159   8.057   1.995   3.254  0.3961 -2.3309  0.5558
18240SOL     OW56160   6.721   7.183   4.462 -0.3372  0.0343  0.0462
18240SOL    HW156161   6.765   7.153   4.383 -1.8443 -0.5145 -0.6336
18240SOL    HW256162   6.691   7.103   4.505 -1.2604  0.4030  0.1105
18241SOL     OW56163   7.569   0.324   5.694  0.5235  0.2500  0.1807
18241SOL    HW156164   7.505   0.365   5.636 -0.1533 -0.1194  0.6583
18241SOL    HW256165   7.603   0.396   5.747  1.9660  0.7925 -1.3959
18242SOL     OW56166   7.149   2.092   5.513 -0.1310  0.5107  0.2463
18242SOL    HW156167   7.129   2.156   5.581 -0.9149  0.4927  0.0380
18242SOL    HW256168   7.213   2.137   5.456  0.6744  0.4530  1.0824
18243SOL     OW56169   6.868   1.575   5.698 -0.3766  0.0494  0.4222
18243SOL    HW156170   6.923   1.590   5.774 -1.2877 -0.2979  1.1675
18243SOL    HW256171   6.862   1.661   5.656 -0.7340  0.4971  1.3540
18244SOL     OW56172   6.370   2.528   5.694 -0.7150  0.4300 -0.4126
18244SOL    HW156173   6.460   2.506   5.671 -0.6446 -0.4169  0.5911
18244SOL    HW256174   6.319   2.505   5.616 -0.5041 -2.4749  0.2157
18245SOL     OW56175   5.716   4.332   5.169 -0.0983  0.0748 -0.2135
18245SOL    HW156176   5.677   4.406   5.122  1.6326  0.0910 -1.7289
18245SOL    HW256177   5.675   4.255   5.129  1.5953  0.0706 -2.1270
18246SOL     OW56178   5.208   2.548   3.662 -0.2514 -0.0113  0.1831
18246SOL    HW156179   5.122   2.513   3.640 -0.2499 -0.2916  0.6106
18246SOL    HW256180   5.192   2.639   3.689 -0.7234 -0.7057  2.4050
18247SOL     OW56181   5.117   0.826   3.782 -0.8517 -0.0004 -0.2106
18247SOL    HW156182   5.152   0.910   3.814  2.2352 -0.7847 -1.1691
18247SOL    HW256183   5.129   0.830   3.687 -0.8246 -1.4419 -0.2873
18248SOL     OW56184   7.503   7.908   5.470  0.0472  0.3198 -0.1120
18248SOL    HW156185   7.457   7.857   5.536  0.4508  1.0702  0.7756
18248SOL    HW256186   7.449   7.900   5.391 -0.2361 -0.9100  0.1895
18249SOL     OW56187   6.095   2.029   4.820  0.4874  0.5843  0.3424
18249SOL    HW156188   6.176   1.992   4.854  0.1205 -1.1301 -0.5306
18249SOL    HW256189   6.033   1.956   4.819 -0.6445  1.5055 -0.3558
18250SOL     OW56190   6.699   3.158   5.624 -0.4326 -0.2588 -0.1185
18250SOL    HW156191   6.783   3.200   5.604  0.7205 -1.5490  1.6872
18250SOL    HW256192   6.722   3.072   5.658 -2.5808 -1.1222 -0.6528
18251SOL     OW56193   1.216   1.745   5.298 -0.0701  0.1422 -0.0379
18251SOL    HW156194   1.273   1.692   5.353  0.0026  0.0538 -0.2007
18251SOL    HW256195   1.253   1.833   5.304  1.1090 -0.2168 -1.5049
18252SOL     OW56196   7.330   7.926   5.259  0.4148 -0.5858  0.1660
18252SOL    HW156197   7.398   7.899   5.197 -0.7280 -0.2285 -1.2809
18252SOL    HW256198   7.300   8.011   5.227 -0.6740 -0.7094  0.8101
18253SOL     OW56199   7.825   2.142   4.525  0.1295 -0.6872  0.6021
18253SOL    HW156200   7.839   2.236   4.511  1.7036 -0.8813  0.6196
18253SOL    HW256201   7.837   2.103   4.439 -0.7303 -0.8552  0.5563
18254SOL     OW56202   5.264   7.611   6.046 -0.1529 -0.3271 -0.8357
18254SOL    HW156203   5.337   7.667   6.071 -0.8053  0.2599 -0.2128
18254SOL    HW256204   5.213   7.663   5.983  0.1478 -0.8699 -1.5461
18255SOL     OW56205   6.669   0.778   3.159 -0.1736 -0.3611 -0.4143
18255SOL    HW156206   6.685   0.796   3.066 -0.7518  1.6040 -0.1736
18255SOL    HW256207   6.661   0.683   3.164  0.3110 -0.5383 -2.2998
18256SOL     OW56208   7.700   1.242   5.561  0.1964 -0.2999 -0.1073
18256SOL    HW156209   7.757   1.182   5.609  1.5243  1.1120  0.1462
18256SOL    HW256210   7.758   1.282   5.496 -0.7696  0.4051 -0.5503
18257SOL     OW56211   6.006   1.119   5.064  0.0020 -0.0093 -0.8039
18257SOL    HW156212   6.032   1.184   5.130 -0.2977  0.0370 -0.7297
18257SOL    HW256213   6.088   1.080   5.036  0.1645  0.2259 -0.6643
18258SOL     OW56214   5.302   0.977   5.165 -0.7350 -0.4677 -0.1438
18258SOL    HW156215   5.283   0.950   5.075  1.8362 -0.6963 -0.7121
18258SOL    HW256216   5.368   1.046   5.156 -0.1927 -0.7039  1.5589
18259SOL     OW56217   5.388   1.727   5.105  0.4984  0.0832 -0.5111
18259SOL    HW156218   5.420   1.638   5.119  1.3301  0.5069  0.4069
18259SOL    HW256219   5.445   1.762   5.037  0.6750  0.1783 -0.3123
18260SOL     OW56220   7.143   7.927   2.433  0.2635  0.1022  0.1136
18260SOL    HW156221   7.060   7.944   2.389  0.4801  0.6592 -0.0925
18260SOL    HW256222   7.201   7.997   2.402  0.5111  0.3156  1.0491
18261SOL     OW56223   6.109   0.130   4.937 -0.2675 -0.4805  0.0487
18261SOL    HW156224   6.016   0.128   4.957 -0.2301 -0.0029  0.3121
18261SOL    HW256225   6.146   0.055   4.983 -0.5117 -0.6268  0.0033
18262SOL     OW56226   5.799   1.878   3.500 -0.3917  0.1884 -0.0881
18262SOL    HW156227   5.744   1.944   3.543  0.7091  0.2912  1.2329
18262SOL    HW256228   5.857   1.928   3.443 -0.9230  0.1633 -0.6696
18263SOL     OW56229   4.145   7.936   3.256 -0.0606  0.0507 -0.4220
18263SOL    HW156230   4.176   7.981   3.177  1.7763  1.5182  1.0346
18263SOL    HW256231   4.052   7.958   3.261 -0.3178 -0.4140 -2.3478
18264SOL     OW56232   7.125   0.866   4.094 -0.4334 -0.2251 -0.4435
18264SOL    HW156233   7.050   0.851   4.037  0.2207 -1.7332 -0.9549
18264SOL    HW256234   7.201   0.862   4.035  0.1142  0.4277  0.1936
18265SOL     OW56235   7.648   6.874   3.974  0.5859 -0.6480 -0.2275
18265SOL    HW156236   7.671   6.881   3.881  0.9816 -0.7931 -0.1407
18265SOL    HW256237   7.669   6.960   4.010 -0.8834 -0.1137 -0.5516
18266SOL     OW56238   5.199   0.816   6.502 -0.2385  0.1654 -0.0836
18266SOL    HW156239   5.141   0.777   6.568 -0.4530 -0.2669 -0.5222
18266SOL    HW256240   5.285   0.819   6.544 -0.2673 -0.5691  0.0398
18267SOL     OW56241   4.877   0.062   8.041 -0.4740 -0.0390  0.2859
18267SOL    HW156242   4.871   0.146   7.996 -2.1879 -1.3654 -2.1764
18267SOL    HW256243   4.818   0.071   8.117 -0.7019  0.9423 -0.0033
18268SOL     OW56244   5.920   1.326   8.633  0.2467  0.1889  0.0038
18268SOL    HW156245   5.984   1.323   8.705  0.5929  1.5227 -0.2126
18268SOL    HW256246   5.956   1.269   8.566  0.5678 -0.0597  0.3819
18269SOL     OW56247   6.984   1.863   5.010  0.1838 -0.0098 -0.0928
18269SOL    HW156248   7.034   1.891   5.087  0.5276  0.8563 -0.6153
18269SOL    HW256249   6.894   1.856   5.041  0.5016 -0.8265  0.6720
18270SOL     OW56250   7.827   1.227   6.731  0.2134  0.0301 -0.2676
18270SOL    HW156251   7.869   1.261   6.653  0.3043  0.1109 -0.1835
18270SOL    HW256252   7.763   1.164   6.698 -0.4495  0.7936 -0.4677
18271SOL     OW56253   0.551   6.110   6.262 -0.2109 -0.2774 -0.1129
18271SOL    HW156254   0.561   6.038   6.325 -1.1760  0.2632  0.6812
18271SOL    HW256255   0.460   6.103   6.232 -0.1177  0.2234 -0.5278
18272SOL     OW56256   4.054   1.236  10.033 -0.3657 -0.0242 -0.0442
18272SOL    HW156257   4.027   1.192  10.114 -0.8122 -0.4552 -0.4184
18272SOL    HW256258   4.050   1.167   9.966 -2.3044  0.8487 -0.8842
18273SOL     OW56259   6.162   0.290   7.107 -0.1390  0.2426  0.0060
18273SOL    HW156260   6.128   0.378   7.121 -0.0986  0.4072 -0.8929
18273SOL    HW256261   6.154   0.275   7.013 -1.2926 -1.1795  0.2808
18274SOL     OW56262   6.807   0.640   4.639 -0.4254 -0.0769 -0.1295
18274SOL    HW156263   6.813   0.658   4.733  2.3867  0.2680 -0.3200
18274SOL    HW256264   6.787   0.724   4.599  1.5867  0.4717 -0.0656
18275SOL     OW56265   6.029   1.085   7.033 -0.4837 -0.1377 -0.1714
18275SOL    HW156266   6.117   1.117   7.053 -0.7345 -0.2174  1.1403
18275SOL    HW256267   6.038   1.043   6.948  0.4708  0.9194 -0.6271
18276SOL     OW56268   6.870   1.934   6.781 -0.3930  0.2423  0.1056
18276SOL    HW156269   6.842   1.873   6.849  0.3644 -0.5826 -0.3093
18276SOL    HW256270   6.791   1.950   6.729 -0.7819  0.2490  0.6942
18277SOL     OW56271   0.100   1.826   7.406 -0.6482 -0.0401  0.3363
18277SOL    HW156272   0.040   1.819   7.480  0.4419  0.2410  1.2608
18277SOL    HW256273   0.054   1.782   7.334 -0.9438 -1.9476  1.6348
18278SOL     OW56274   5.864   0.682   7.426 -0.1515 -0.3367 -0.0780
18278SOL    HW156275   5.941   0.683   7.483  0.7806 -1.0828 -1.2748
18278SOL    HW256276   5.887   0.739   7.353 -0.5381 -0.9526 -0.6942
18279SOL     OW56277   7.544   0.479   6.199  0.0411 -0.3612 -0.0377
18279SOL    HW156278   7.467   0.444   6.243 -1.1543  0.2392 -1.5757
18279SOL    HW256279   7.584   0.403   6.156 -1.9300 -0.1652 -2.4476
18280SOL     OW56280   6.186   3.139   9.232  0.0628  0.1091 -0.2562
18280SOL    HW156281   6.282   3.140   9.232  0.0812  1.9708 -0.6952
18280SOL    HW256282   6.161   3.163   9.143 -0.7632  2.2604  0.4994
18281SOL     OW56283   6.033   1.669   7.171 -0.3576 -0.3700 -0.3016
18281SOL    HW156284   5.962   1.668   7.106  0.0969  0.6565 -0.8326
18281SOL    HW256285   6.029   1.756   7.210 -0.3975 -0.8595  0.8211
18282SOL     OW56286   5.722   1.671   4.130 -0.5650 -0.3468  0.0375
18282SOL    HW156287   5.743   1.715   4.048 -1.0190  0.9461  0.5831
18282SOL    HW256288   5.797   1.688   4.187 -0.8157 -0.1057  0.3058
18283SOL     OW56289   7.120   1.193   7.640 -0.0094  0.1446  0.1857
18283SOL    HW156290   7.139   1.242   7.720 -1.6566  0.8764  0.1851
18283SOL    HW256291   7.124   1.102   7.666  2.0336  0.2645  0.4546
18284SOL     OW56292   7.353   3.740   7.943 -0.1199 -0.4095  0.0392
18284SOL    HW156293   7.353   3.658   7.893 -1.0458  0.1568 -0.9324
18284SOL    HW256294   7.287   3.794   7.901  0.3696  0.7979  0.7532
18285SOL     OW56295   0.621   1.004   5.040  0.3758 -0.0043 -0.8466
18285SOL    HW156296   0.573   0.929   5.075 -0.0999  0.5189 -0.3597
18285SOL    HW256297   0.610   0.997   4.945  0.7466 -0.8152 -0.8407
18286SOL     OW56298   0.565   1.505   7.378  0.5695 -0.4263 -0.5859
18286SOL    HW156299   0.514   1.456   7.443 -1.1874  0.8821 -0.8877
18286SOL    HW256300   0.505   1.517   7.305  1.8297 -0.0829 -1.5999
18287SOL     OW56301   5.978   2.513   6.979 -0.3928  0.3391  0.0984
18287SOL    HW156302   6.057   2.557   6.947 -0.1910  1.6631  2.2490
18287SOL    HW256303   6.011   2.446   7.039 -0.8928  1.0905  1.2280
18288SOL     OW56304   0.580   2.490   6.795 -1.1338 -0.1449  0.0477
18288SOL    HW156305   0.665   2.446   6.795 -1.0112  0.0143 -1.6922
18288SOL    HW256306   0.602   2.583   6.798 -1.2967 -0.1334  0.9180
18289SOL     OW56307   7.312   2.504   5.495  0.0842  0.1208  0.3500
18289SOL    HW156308   7.219   2.481   5.488  0.1464  0.0338 -0.1817
18289SOL    HW256309   7.324   2.576   5.434  0.7522 -1.0327 -0.9203
18290SOL     OW56310   7.319   2.611   5.812  0.0066  0.4272  0.7216
18290SOL    HW156311   7.373   2.664   5.870  0.7239  0.8529 -0.3038
18290SOL    HW256312   7.279   2.675   5.752 -0.9188  0.0243  0.9013
18291SOL     OW56313   1.828   1.259   5.988  0.2805  0.2125  0.5669
18291SOL    HW156314   1.774   1.238   6.064  1.9702  0.0986  1.7933
18291SOL    HW256315   1.791   1.206   5.917 -1.6734  0.7295  1.1390
18292SOL     OW56316   5.417   0.714   7.807  0.0154  0.4791 -0.2842
18292SOL    HW156317   5.433   0.808   7.804 -0.6350  0.6101  0.0646
18292SOL    HW256318   5.350   0.699   7.741  1.0772  0.0367 -1.2967
18293SOL     OW56319   6.762   2.125   5.987 -0.0642 -0.4822  0.5517
18293SOL    HW156320   6.810   2.203   6.013 -1.2390  0.0845  1.1211
18293SOL    HW256321   6.757   2.130   5.891 -1.6301  1.1024  0.6714
18294SOL     OW56322   6.258   0.388   7.435  0.0295 -0.6862 -0.0022
18294SOL    HW156323   6.295   0.417   7.518  2.6494 -2.2516 -0.5078
18294SOL    HW256324   6.313   0.431   7.369  0.2311 -2.1630 -0.8324
18295SOL     OW56325   7.262   7.606   4.836  0.0912 -0.3739 -0.6544
18295SOL    HW156326   7.292   7.535   4.893  1.3490 -0.6880 -1.6593
18295SOL    HW256327   7.212   7.562   4.767 -0.0317 -0.1673 -0.6984
18296SOL     OW56328   6.050   2.202   6.519 -0.0309 -0.0936 -0.2799
18296SOL    HW156329   5.980   2.219   6.582 -0.0320 -1.0230 -0.0147
18296SOL    HW256330   6.017   2.236   6.436 -0.1662  0.8389  0.1451
18297SOL     OW56331   1.006   1.658   7.077 -0.3223  0.0390 -0.2959
18297SOL    HW156332   1.006   1.669   6.982 -1.6908  0.1047 -0.3015
18297SOL    HW256333   0.954   1.732   7.110 -0.6503 -0.5056  0.4309
18298SOL     OW56334   6.383   4.784   6.654 -0.2699 -0.0856  0.2643
18298SOL    HW156335   6.405   4.738   6.735 -0.6930  0.4436  0.6955
18298SOL    HW256336   6.299   4.747   6.627 -2.7311  3.0491  2.7975
18299SOL     OW56337   6.864   7.873   7.835  0.5242  0.1132 -0.1815
18299SOL    HW156338   6.942   7.896   7.885  1.0807 -2.5956  0.3188
18299SOL    HW256339   6.895   7.863   7.745  0.8302 -1.1344  0.0463
18300SOL     OW56340   7.544   1.652   6.864 -0.8460 -0.5385 -0.2267
18300SOL    HW156341   7.542   1.611   6.950 -1.1703  1.9552  1.0496
18300SOL    HW256342   7.454   1.682   6.850 -0.1968  1.7204  0.0106
18301SOL     OW56343   6.790   2.053   6.273  0.1573 -0.3214 -0.5050
18301SOL    HW156344   6.797   2.053   6.178 -2.4494 -0.4358 -0.7741
18301SOL    HW256345   6.713   2.108   6.292  0.7757 -0.0495  1.5698
18302SOL     OW56346   6.863   0.465   5.876  0.1267  0.0912  0.2413
18302SOL    HW156347   6.944   0.418   5.895 -0.4297 -1.3897 -0.8525
18302SOL    HW256348   6.891   0.550   5.844  1.1961  0.1681  1.3233
18303SOL     OW56349   1.228   0.352   6.840  0.0839 -0.1292  0.2176
18303SOL    HW156350   1.192   0.401   6.766 -1.1168 -0.7896  0.3373
18303SOL    HW256351   1.323   0.360   6.830 -0.0794  1.3520 -0.3210
18304SOL     OW56352   0.314   3.244   5.520 -0.9481  0.0049  0.3676
18304SOL    HW156353   0.371   3.275   5.590 -0.7798 -0.3567  0.3927
18304SOL    HW256354   0.368   3.182   5.471 -1.0805  0.2236 -0.0558
18305SOL     OW56355   5.857   0.550   6.589 -0.0056  0.3820 -0.0113
18305SOL    HW156356   5.893   0.627   6.545  0.3596  0.4400  0.3853
18305SOL    HW256357   5.779   0.581   6.634 -0.6193  0.2422 -0.9338
18306SOL     OW56358   6.410   1.591   7.210 -0.0176 -0.0759 -0.4147
18306SOL    HW156359   6.330   1.541   7.193 -0.3832 -0.5177  2.2252
18306SOL    HW256360   6.452   1.546   7.283  2.1257  0.7654 -1.0453
18307SOL     OW56361   6.000   0.784   6.438  0.0860  0.2118 -0.1795
18307SOL    HW156362   6.035   0.753   6.354 -0.6757  0.7014 -0.6955
18307SOL    HW256363   6.062   0.851   6.467  0.2643  0.1614 -0.4368
18308SOL     OW56364   0.662   1.370   5.514 -0.0494  0.3161 -0.1230
18308SOL    HW156365   0.741   1.325   5.542 -0.0239  1.6001  2.0424
18308SOL    HW256366   0.692   1.458   5.488 -0.6138  0.4002 -0.5169
18309SOL     OW56367   7.270   1.578   6.697 -0.2153  0.0452  0.0663
18309SOL    HW156368   7.180   1.605   6.678 -0.3830 -0.1540  0.5594
18309SOL    HW256369   7.283   1.598   6.789  0.4496  0.6083 -0.1411
18310SOL     OW56370   5.098   1.956   8.139  0.1250 -0.8995 -0.2262
18310SOL    HW156371   5.170   2.013   8.110  0.1339 -1.6633 -1.7835
18310SOL    HW256372   5.141   1.886   8.188  0.0884  0.5285  1.9811
18311SOL     OW56373   6.525   7.787   5.350  0.3306  0.1527  0.0751
18311SOL    HW156374   6.573   7.799   5.432 -0.3572 -0.4652  0.5795
18311SOL    HW256375   6.534   7.694   5.331 -0.2285  0.1376 -0.1059
18312SOL     OW56376   6.304   0.430   8.937 -0.4482 -0.2407  0.0836
18312SOL    HW156377   6.210   0.442   8.920 -0.6259 -1.8498 -0.1727
18312SOL    HW256378   6.347   0.462   8.859 -0.7664  0.6052  0.2416
18313SOL     OW56379   7.381   2.867   5.210  0.0028  0.3874  0.3931
18313SOL    HW156380   7.310   2.822   5.254 -1.4838  1.3576 -0.8945
18313SOL    HW256381   7.414   2.804   5.146 -1.4753  0.7482 -0.7902
18314SOL     OW56382   5.931   6.991   7.991 -0.0730 -0.2840  0.2996
18314SOL    HW156383   5.975   6.947   7.918 -1.6311  2.9157 -2.9093
18314SOL    HW256384   5.840   6.999   7.963 -0.8352  0.8946  2.7945
18315SOL     OW56385   7.254   3.367   7.483  0.3703  0.5296  0.3628
18315SOL    HW156386   7.249   3.309   7.407  1.1589  3.0025 -1.7306
18315SOL    HW256387   7.192   3.330   7.546 -1.5066 -0.7945 -2.0883
18316SOL     OW56388   5.800   1.350   4.743  0.5733  0.0801 -0.0796
18316SOL    HW156389   5.735   1.355   4.673  0.7135 -0.3261 -0.2409
18316SOL    HW256390   5.786   1.264   4.782  0.5015  0.3006  0.3893
18317SOL     OW56391   0.534   7.937   6.305 -0.0227  0.1508 -0.3983
18317SOL    HW156392   0.585   7.879   6.248  1.9646 -0.2211  1.6384
18317SOL    HW256393   0.599   7.979   6.361 -1.8198  0.9741  1.1758
18318SOL     OW56394   7.638   1.921   6.875 -0.0609 -0.3717  0.2612
18318SOL    HW156395   7.634   1.917   6.780  0.6509  0.1367  0.2101
18318SOL    HW256396   7.616   1.832   6.903  0.6909 -0.7759 -0.4100
18319SOL     OW56397   6.784   7.596   6.337  0.1023  0.1904  0.4412
18319SOL    HW156398   6.742   7.512   6.319 -0.0978  0.2407  0.6647
18319SOL    HW256399   6.730   7.635   6.406 -1.8455  1.9873 -1.9123
18320SOL     OW56400   0.333   2.106   5.194 -0.5616  0.0357 -0.3017
18320SOL    HW156401   0.392   2.070   5.260 -1.5595 -1.2304 -0.0637
18320SOL    HW256402   0.364   2.196   5.181 -0.2168  0.2632  1.7368
18321SOL     OW56403   7.245   2.948   7.286  0.1947  0.3749  0.2199
18321SOL    HW156404   7.255   2.989   7.200  1.0257 -2.3724 -1.1157
18321SOL    HW256405   7.179   2.880   7.273  0.1430  0.0753  1.8250
18322SOL     OW56406   6.803   0.730   4.927 -0.1115  0.2571  0.4810
18322SOL    HW156407   6.742   0.801   4.950 -1.1532 -0.2260 -0.7170
18322SOL    HW256408   6.759   0.650   4.955 -2.0376 -0.5122 -3.9657
18323SOL     OW56409   6.399   1.527   5.834  0.0355  0.5262  0.5296
18323SOL    HW156410   6.484   1.551   5.870  0.5356  1.4927 -1.1526
18323SOL    HW256411   6.419   1.464   5.764 -0.8768 -1.1577  1.7184
18324SOL     OW56412   7.421   1.683   4.194  0.1986  0.1562 -0.2159
18324SOL    HW156413   7.341   1.674   4.245  0.4156 -0.2230  0.0592
18324SOL    HW256414   7.492   1.673   4.257  0.5298  3.9307  0.2230
18325SOL     OW56415   7.095   2.222   6.074  0.2390 -0.3266 -0.4041
18325SOL    HW156416   7.147   2.149   6.041  0.0589  0.3033 -2.2090
18325SOL    HW256417   7.142   2.300   6.043 -1.2137  0.2594 -1.2314
18326SOL     OW56418   6.018   0.588   7.027  0.6259  0.1586 -0.0057
18326SOL    HW156419   6.083   0.656   7.043  0.1426  0.3943  1.0570
18326SOL    HW256420   5.984   0.567   7.114 -0.9082  0.2283 -0.5682
18327SOL     OW56421   6.292   2.333   6.556 -0.7015 -0.2231  0.5016
18327SOL    HW156422   6.219   2.273   6.542 -1.4350  0.8364 -0.3474
18327SOL    HW256423   6.321   2.357   6.468 -0.3656  0.5990  0.8273
18328SOL     OW56424   7.577   1.955   7.284  0.6344  0.3326  0.5233
18328SOL    HW156425   7.532   1.990   7.207  1.2414 -0.2788 -0.1227
18328SOL    HW256426   7.508   1.941   7.348 -0.5137 -2.6762 -1.1673
18329SOL     OW56427   7.208   7.936   6.305 -0.3953 -0.3794 -0.5841
18329SOL    HW156428   7.278   7.884   6.267  1.4563 -0.8738  3.0925
18329SOL    HW256429   7.135   7.875   6.316  0.1502 -1.0021 -0.4068
18330SOL     OW56430   7.752   6.430   5.178 -0.0677 -0.3746 -0.2015
18330SOL    HW156431   7.824   6.376   5.147  0.7832  0.2745  0.6034
18330SOL    HW256432   7.684   6.367   5.202  0.4081 -1.0231 -0.5261
18331SOL     OW56433   7.637   2.254   8.469 -0.3901  0.1707  0.5061
18331SOL    HW156434   7.620   2.197   8.543  2.6611 -1.7922 -0.1453
18331SOL    HW256435   7.683   2.199   8.406 -0.4723  2.4711 -1.7227
18332SOL     OW56436   5.973   0.211   8.389 -0.7343  0.3843  0.9972
18332SOL    HW156437   6.008   0.123   8.403  0.0771  0.3029 -1.1056
18332SOL    HW256438   6.041   0.269   8.422 -0.6785  0.2144  1.1838
18333SOL     OW56439   0.887   1.440   6.875  0.7204 -0.0304 -0.5365
18333SOL    HW156440   0.944   1.396   6.938  1.9575  0.1383 -1.5009
18333SOL    HW256441   0.930   1.524   6.857 -0.8229  0.9443  0.1293
18334SOL     OW56442   6.240   0.958   6.514  0.2741 -0.0266  0.3053
18334SOL    HW156443   6.325   0.944   6.557  0.5756  1.5339  0.2749
18334SOL    HW256444   6.182   0.985   6.584  0.4410  1.2657 -0.0234
18335SOL     OW56445   7.251   1.373   5.308 -0.1364 -0.0419  0.0179
18335SOL    HW156446   7.290   1.418   5.234  0.2647  0.2788  0.4130
18335SOL    HW256447   7.225   1.443   5.368  2.5488 -0.2913  1.6834
18336SOL     OW56448   6.577   7.348   5.124  0.3743  1.0919 -0.2232
18336SOL    HW156449   6.552   7.303   5.204  0.5154  2.4010  0.5843
18336SOL    HW256450   6.581   7.279   5.058 -0.6978  0.1291  0.6680
18337SOL     OW56451   6.944   0.951   5.352  0.0265 -0.1305  0.3789
18337SOL    HW156452   6.936   0.877   5.293 -0.9221 -0.1796  0.5574
18337SOL    HW256453   7.027   0.993   5.328  0.2631 -0.8852 -0.1271
18338SOL     OW56454   7.625   0.672   6.351 -0.2882  0.5593 -0.6130
18338SOL    HW156455   7.552   0.723   6.386 -0.0322  2.3122 -2.4274
18338SOL    HW256456   7.584   0.608   6.292 -0.4709  0.2051 -0.1053
18339SOL     OW56457   0.115   0.049   4.274 -0.0611  0.0116  0.6135
18339SOL    HW156458   0.143   0.140   4.284  0.6537  0.0693 -1.4259
18339SOL    HW256459   0.035   0.054   4.223 -0.0702 -0.5089  0.5669
18340SOL     OW56460   0.166   1.843   7.044  0.2452  0.1740 -0.2194
18340SOL    HW156461   0.225   1.776   7.011  0.3943 -0.0141  0.4172
18340SOL    HW256462   0.126   1.881   6.966 -1.4956 -2.1343 -0.5495
18341SOL     OW56463   1.276   2.189   8.104 -0.2884  0.1550  0.1849
18341SOL    HW156464   1.220   2.168   8.178  0.7581  0.0018  0.9688
18341SOL    HW256465   1.282   2.108   8.054  1.3200 -0.6493  1.5569
18342SOL     OW56466   6.792   1.437   6.199 -0.1998  0.1208 -0.4207
18342SOL    HW156467   6.804   1.422   6.293  0.8329 -0.6403 -0.6564
18342SOL    HW256468   6.872   1.403   6.159 -0.6109  0.4759 -1.5784
18343SOL     OW56469   5.652   1.646   5.308 -0.2493 -0.0379 -0.0610
18343SOL    HW156470   5.693   1.699   5.376  0.5481 -2.0433  1.1248
18343SOL    HW256471   5.702   1.666   5.229 -0.0591  1.0387  0.3160
18344SOL     OW56472   5.723   6.915   6.594  0.1144 -0.2769  0.0885
18344SOL    HW156473   5.738   6.851   6.525 -0.8562 -0.0904 -0.3162
18344SOL    HW256474   5.688   6.992   6.549  0.6785  0.3183  0.6441
18345SOL     OW56475   5.552   0.739   5.670 -0.4281  0.2756  0.3194
18345SOL    HW156476   5.565   0.718   5.763  1.0962 -0.0880  0.0442
18345SOL    HW256477   5.633   0.782   5.643 -0.4684 -0.4641 -1.0749
18346SOL     OW56478   6.532   7.572   5.685 -0.5341 -0.3625  0.1829
18346SOL    HW156479   6.616   7.529   5.672 -0.5450 -0.6067  0.8744
18346SOL    HW256480   6.478   7.542   5.611 -0.5727 -1.6322  0.6960
18347SOL     OW56481   6.567   0.780   6.395  0.6186  0.0994  0.6323
18347SOL    HW156482   6.504   0.709   6.405  1.3329 -0.5186  0.8507
18347SOL    HW256483   6.625   0.752   6.325  1.1060  0.3105  0.9420
18348SOL     OW56484   6.227   0.854   5.870 -0.0657  0.1614  0.1983
18348SOL    HW156485   6.213   0.901   5.788  1.1579  0.0039 -0.1226
18348SOL    HW256486   6.315   0.880   5.897 -0.0185 -0.6643  0.8754
18349SOL     OW56487   6.057   2.359   7.385  0.6573 -0.2613  0.8069
18349SOL    HW156488   6.148   2.388   7.390  0.4737  0.7348 -0.9075
18349SOL    HW256489   6.046   2.331   7.294 -1.5293  2.5860  0.0574
18350SOL     OW56490   5.548   1.112   4.332 -0.0927 -0.0454 -0.0093
18350SOL    HW156491   5.597   1.139   4.410  0.6647  1.0148 -0.8314
18350SOL    HW256492   5.615   1.101   4.264 -0.9652  1.6276 -1.2164
18351SOL     OW56493   0.581   0.736   6.461  0.3005 -0.0887  0.3638
18351SOL    HW156494   0.609   0.681   6.388  2.4540  1.8312 -0.3532
18351SOL    HW256495   0.486   0.742   6.452  0.2740 -1.7346 -0.8876
18352SOL     OW56496   6.644   1.380   5.207  0.0164  0.4915  0.0941
18352SOL    HW156497   6.690   1.313   5.258 -0.9363  1.0763  1.8196
18352SOL    HW256498   6.611   1.441   5.273  0.3694  2.3765 -1.3869
18353SOL     OW56499   6.754   2.444   5.092 -0.1837 -0.0322  0.3589
18353SOL    HW156500   6.718   2.462   5.179  0.0703  0.9322  0.2855
18353SOL    HW256501   6.680   2.411   5.042 -0.5611  0.2863  0.6901
18354SOL     OW56502   7.790   1.056   6.974  0.2048 -0.3047 -0.3622
18354SOL    HW156503   7.813   1.121   6.907  0.6179  1.0305  1.0113
18354SOL    HW256504   7.824   1.093   7.056  0.8334 -2.4775  0.4250
18355SOL     OW56505   5.165   0.819   6.242 -0.0669 -0.0286  0.2798
18355SOL    HW156506   5.201   0.736   6.209  0.7444  0.0464  0.9637
18355SOL    HW256507   5.174   0.814   6.337 -2.0175 -0.0608  0.5127
18356SOL     OW56508   7.396   1.389   8.185  0.4343  0.2710 -0.1442
18356SOL    HW156509   7.424   1.445   8.257 -0.4206  4.5377 -2.7583
18356SOL    HW256510   7.477   1.363   8.142  0.8225  1.7561 -0.3491
18357SOL     OW56511   7.629   7.982   7.488  0.1449 -0.5138  0.0469
18357SOL    HW156512   7.702   7.924   7.506 -0.1183 -1.2580 -1.1940
18357SOL    HW256513   7.601   7.960   7.399 -1.1858  0.1816  0.2606
18358SOL     OW56514   6.638   0.695   7.176 -0.4014  0.2556  0.3418
18358SOL    HW156515   6.553   0.670   7.141 -1.2563  1.8161  1.2108
18358SOL    HW256516   6.623   0.778   7.220  1.3856  0.1126  1.3331
18359SOL     OW56517   7.433   2.780   5.983  0.0185 -0.0675 -0.2691
18359SOL    HW156518   7.444   2.854   5.922  0.1323  1.4575  1.5282
18359SOL    HW256519   7.519   2.770   6.023 -0.3285 -0.3517  0.4101
18360SOL     OW56520   1.231   1.429   7.397 -0.3989 -0.5241 -0.1510
18360SOL    HW156521   1.237   1.525   7.397  0.6421 -0.5727 -0.8249
18360SOL    HW256522   1.195   1.408   7.311 -0.6770 -0.7410  0.0171
18361SOL     OW56523   7.587   6.960   7.253  0.2720 -0.0470 -0.0218
18361SOL    HW156524   7.568   7.035   7.196  1.0281  0.9621  0.9904
18361SOL    HW256525   7.609   6.889   7.194  0.9205  0.9396 -0.9986
18362SOL     OW56526   7.320   7.959   7.155  0.0033 -0.7024 -0.2638
18362SOL    HW156527   7.235   8.003   7.166  0.2049 -0.3758  0.0326
18362SOL    HW256528   7.384   8.027   7.176  0.3166 -1.2208  0.5028
18363SOL     OW56529   0.242   1.773   6.475 -0.3299  0.2168 -0.2104
18363SOL    HW156530   0.254   1.843   6.538 -1.8359  1.1526 -0.8978
18363SOL    HW256531   0.146   1.765   6.466 -0.2221 -1.9457 -0.1316
18364SOL     OW56532   5.058   0.253   7.608 -0.7829  0.2091  0.4211
18364SOL    HW156533   5.014   0.168   7.609 -0.5778  0.0989  0.2435
18364SOL    HW256534   5.150   0.232   7.623  0.0748 -0.0907 -3.8851
18365SOL     OW56535   5.923   0.470   8.011  0.1555  0.5827 -0.5861
18365SOL    HW156536   6.011   0.504   8.026  0.4208  0.1048 -1.0247
18365SOL    HW256537   5.875   0.543   7.972  0.5320  0.6651 -0.9061
18366SOL     OW56538   5.421   2.518   6.854 -0.3083 -0.8084 -0.0009
18366SOL    HW156539   5.380   2.589   6.805  0.1330 -1.0980 -0.8112
18366SOL    HW256540   5.507   2.507   6.812  1.6159  1.2760  3.0196
18367SOL     OW56541   6.906   2.208   5.339  0.1333  0.4167 -0.3919
18367SOL    HW156542   6.848   2.205   5.415  1.6932 -0.6231  0.8109
18367SOL    HW256543   6.852   2.174   5.267 -0.7328 -0.6761  0.7190
18368SOL     OW56544   7.198   2.988   6.029  0.1197 -0.3916 -0.2916
18368SOL    HW156545   7.206   2.962   6.121 -0.7598  0.8729  0.1646
18368SOL    HW256546   7.149   2.918   5.988 -1.5293  0.0981  0.7430
18369SOL     OW56547   7.235   1.991   6.001 -0.4392  0.4210  0.6794
18369SOL    HW156548   7.215   1.986   5.908  0.8435 -1.9891  0.4514
18369SOL    HW256549   7.329   1.975   6.006 -0.7910 -1.5914  2.4787
18370SOL     OW56550   7.665   0.812   8.281  0.1472 -0.2650  0.1188
18370SOL    HW156551   7.634   0.734   8.329  2.4302 -0.9462  0.6010
18370SOL    HW256552   7.675   0.781   8.191  0.7991 -0.4579  0.2564
18371SOL     OW56553   1.520   1.088   6.398 -0.1789  0.1865 -0.4149
18371SOL    HW156554   1.452   1.121   6.457  0.2379 -0.2933  0.3645
18371SOL    HW256555   1.566   1.022   6.450 -1.6252 -2.4260 -2.2313
18372SOL     OW56556   6.285   0.486   5.526  0.1321  1.0325 -0.3401
18372SOL    HW156557   6.311   0.409   5.475 -0.3512  0.6984 -0.0845
18372SOL    HW256558   6.363   0.542   5.525  1.1134 -0.2219  0.9187
18373SOL     OW56559   5.828   5.881   7.765  0.2376 -0.7823  0.1226
18373SOL    HW156560   5.808   5.839   7.849  2.8888 -1.2711  0.5992
18373SOL    HW256561   5.885   5.955   7.788 -0.7523  0.3932 -1.0942
18374SOL     OW56562   6.015   0.482   7.279  0.3342  0.2344  0.2144
18374SOL    HW156563   5.953   0.419   7.314  0.0332  1.1756  1.4419
18374SOL    HW256564   6.095   0.467   7.328  1.5227 -1.7186 -2.1044
18375SOL     OW56565   7.248   1.027   6.292  0.0442 -0.1420 -0.6242
18375SOL    HW156566   7.153   1.025   6.281 -0.2728  1.2043  1.3043
18375SOL    HW256567   7.270   0.938   6.320 -1.1885  0.3064  2.0906
18376SOL     OW56568   5.171   7.251   7.434  0.0968  0.2061  0.3394
18376SOL    HW156569   5.138   7.337   7.406 -0.3530 -0.6438 -1.9097
18376SOL    HW256570   5.213   7.215   7.356  1.7429 -0.9639  1.6999
18377SOL     OW56571   5.630   2.641   7.685  0.2447  0.1909 -1.1458
18377SOL    HW156572   5.699   2.707   7.685  0.9491 -0.5142 -1.8973
18377SOL    HW256573   5.677   2.557   7.682 -0.6035 -0.3853  0.3885
18378SOL     OW56574   7.025   2.389   5.074  0.4893 -0.0425 -0.7282
18378SOL    HW156575   7.054   2.446   5.002 -2.1371  1.1692 -0.9469
18378SOL    HW256576   6.939   2.423   5.098  0.8480 -1.0191  2.3937
18379SOL     OW56577   7.907   7.609   5.458  0.4574 -0.1741 -0.1187
18379SOL    HW156578   7.949   7.523   5.453  0.4815 -0.1472 -0.3696
18379SOL    HW256579   7.814   7.591   5.442  0.5599 -0.0655 -0.8328
18380SOL     OW56580   7.474   1.339   7.301  0.2692 -0.2406 -0.3805
18380SOL    HW156581   7.379   1.323   7.308  0.3766 -1.3040 -1.1511
18380SOL    HW256582   7.509   1.259   7.263  1.5025  0.1233 -0.0604
18381SOL     OW56583   4.648   2.671   7.386 -0.0962  0.1551  0.2433
18381SOL    HW156584   4.678   2.685   7.296  0.4612  0.7599  0.5112
18381SOL    HW256585   4.671   2.752   7.432  1.9401 -1.0584  1.5351
18382SOL     OW56586   6.704   7.670   4.682 -0.1433  0.3438  0.0295
18382SOL    HW156587   6.702   7.606   4.611 -1.0480  0.1039  0.2530
18382SOL    HW256588   6.755   7.743   4.648  0.2969 -0.2034 -0.4884
18383SOL     OW56589   7.482   1.025   7.492  0.0006  0.0468 -0.4359
18383SOL    HW156590   7.433   0.991   7.566  1.5694  0.1871  0.7006
18383SOL    HW256591   7.448   0.976   7.417 -1.0857 -0.6241  0.4598
18384SOL     OW56592   7.021   0.782   6.268  0.0563  0.6580 -0.2222
18384SOL    HW156593   7.066   0.732   6.200  0.1030 -0.9727  0.9436
18384SOL    HW256594   7.069   0.762   6.348 -1.7416  0.1070  0.7859
18385SOL     OW56595   7.487   1.920   6.182  0.4725 -0.0457 -0.3879
18385SOL    HW156596   7.528   1.917   6.096  1.6134  2.4465 -0.0178
18385SOL    HW256597   7.533   1.853   6.233  1.5008  0.1370 -1.0480
18386SOL     OW56598   6.418   1.925   6.292  0.5763 -0.4243  0.3405
18386SOL    HW156599   6.361   1.894   6.363 -0.3421 -0.4121 -0.3754
18386SOL    HW256600   6.375   1.895   6.212  0.8012  0.8723 -0.2841
18387SOL     OW56601   6.015   1.387   5.756  0.1011 -0.7492  0.1279
18387SOL    HW156602   6.002   1.403   5.662  0.1785 -0.9772  0.0764
18387SOL    HW256603   5.953   1.445   5.799  0.7009  0.0233 -0.0344
18388SOL     OW56604   6.503   7.499   7.063  0.2512  0.1410 -0.3512
18388SOL    HW156605   6.418   7.538   7.040  0.3635  0.4808 -0.2101
18388SOL    HW256606   6.481   7.429   7.125 -0.0214 -0.5867 -1.2567
18389SOL     OW56607   5.819   1.650   5.810  0.5327  1.0031  0.4014
18389SOL    HW156608   5.871   1.654   5.890 -0.8290  3.1887  1.2559
18389SOL    HW256609   5.732   1.623   5.838 -0.1399  2.4343 -0.1959
18390SOL     OW56610   0.032   0.999   5.582  0.0107  0.2933 -0.8031
18390SOL    HW156611   0.056   0.907   5.577 -1.2748 -0.2486  1.4752
18390SOL    HW256612  -0.058   1.002   5.547  0.4645  0.9288 -1.9800
18391SOL     OW56613   7.885   7.847   3.884 -0.2011 -0.4732 -0.3676
18391SOL    HW156614   7.875   7.774   3.946  1.0499 -0.2002  0.1926
18391SOL    HW256615   7.827   7.915   3.918  1.5742  0.2361  1.4454
18392SOL     OW56616   7.005   1.722   7.426  0.3220  0.1031  0.0387
18392SOL    HW156617   7.027   1.764   7.509  0.5948 -0.5331  0.2936
18392SOL    HW256618   7.020   1.790   7.360  0.5227  0.4791  0.4635
18393SOL     OW56619   6.953   0.149   6.395 -0.2968 -0.1990 -0.4250
18393SOL    HW156620   6.863   0.182   6.395 -0.4488 -0.4602  1.9719
18393SOL    HW256621   6.958   0.091   6.471  1.1997 -2.3065 -2.0053
18394SOL     OW56622   5.599   0.541   7.226  0.1669 -0.4222  0.1917
18394SOL    HW156623   5.609   0.629   7.189 -2.3736 -0.3102 -0.3824
18394SOL    HW256624   5.519   0.507   7.186  0.2968 -2.4530  1.5154
18395SOL     OW56625   7.565   1.081   8.305 -0.0031  0.1284 -0.0348
18395SOL    HW156626   7.599   0.993   8.294  0.0957  0.2859 -1.0121
18395SOL    HW256627   7.586   1.126   8.224 -1.1157  0.7039 -0.0231
18396SOL     OW56628   7.277   1.915   6.592 -0.1032  0.0601  0.4744
18396SOL    HW156629   7.289   1.911   6.687 -1.1239  0.7852  0.6498
18396SOL    HW256630   7.204   1.855   6.575  0.5276 -0.6028  0.0449
18397SOL     OW56631   5.661   0.147   6.049  0.0254  0.0400 -0.0650
18397SOL    HW156632   5.576   0.154   6.092 -0.1387  0.3735 -0.4396
18397SOL    HW256633   5.641   0.148   5.955  0.5792  2.2614 -0.2049
18398SOL     OW56634   5.753   3.562   5.654 -0.0189  0.1198  0.6019
18398SOL    HW156635   5.776   3.614   5.732  1.4347  1.3374 -0.5567
18398SOL    HW256636   5.835   3.519   5.629 -0.3756  0.0102 -0.4348
18399SOL     OW56637   6.869   0.931   6.500 -0.2630  0.1066 -0.4092
18399SOL    HW156638   6.869   0.893   6.412 -0.9676 -0.6875 -0.0792
18399SOL    HW256639   6.851   1.024   6.485 -0.3739 -0.0178 -1.1034
18400SOL     OW56640   7.814   3.067   5.451 -0.0949 -0.7153 -0.0868
18400SOL    HW156641   7.800   3.070   5.546  1.2404 -0.6245  0.1359
18400SOL    HW256642   7.893   3.120   5.437  0.3352 -1.5858 -1.1096
18401SOL     OW56643   6.969   2.396   6.959 -0.0095  0.1397 -0.2588
18401SOL    HW156644   6.964   2.306   6.992  0.9121  0.6840  1.4543
18401SOL    HW256645   6.878   2.419   6.939 -0.4296 -0.6743  0.6465
18402SOL     OW56646   7.038   0.703   7.644 -0.2416  0.2110 -0.4060
18402SOL    HW156647   7.086   0.621   7.634 -0.5620 -0.3185  1.8440
18402SOL    HW256648   7.073   0.760   7.575  2.2389 -0.7559 -0.0386
18403SOL     OW56649   5.872   1.573   6.738 -0.4020 -0.0028  0.1277
18403SOL    HW156650   5.960   1.593   6.772  0.6001 -0.4436 -2.0065
18403SOL    HW256651   5.857   1.640   6.671 -1.2526 -0.5296 -0.2255
18404SOL     OW56652   6.752   1.050   3.945 -0.0008  0.4050 -0.2620
18404SOL    HW156653   6.737   1.068   4.038  0.6055  0.3998 -0.1593
18404SOL    HW256654   6.664   1.037   3.909 -0.1960 -0.6587  0.5225
18405SOL     OW56655   7.844   7.536   7.457 -0.0622 -0.0110  0.5004
18405SOL    HW156656   7.884   7.458   7.419  1.2775  0.6589  0.4854
18405SOL    HW256657   7.791   7.573   7.386 -0.0610 -0.4527  0.2674
18406SOL     OW56658   6.377   1.778   6.610 -0.1235 -0.1308 -0.0126
18406SOL    HW156659   6.402   1.771   6.703 -0.3116 -2.1636 -0.0744
18406SOL    HW256660   6.306   1.841   6.609 -1.4054 -1.4475  1.5376
18407SOL     OW56661   6.124   2.662   6.495  0.6974  1.0070 -0.0984
18407SOL    HW156662   6.041   2.676   6.450  1.2207  2.0506 -0.7704
18407SOL    HW256663   6.191   2.684   6.430  1.5970 -2.2984 -0.4567
18408SOL     OW56664   6.789   0.175   7.563  0.0691  0.4369 -0.6542
18408SOL    HW156665   6.720   0.185   7.498 -1.0644  0.2458  0.4892
18408SOL    HW256666   6.792   0.080   7.580 -1.0445  0.6677  1.0158
18409SOL     OW56667   6.462   0.215   5.700 -0.0892  0.1698  0.3197
18409SOL    HW156668   6.497   0.226   5.612  0.7983 -0.3882  0.5987
18409SOL    HW256669   6.510   0.279   5.753 -0.3039  0.1897  0.4939
18410SOL     OW56670   5.658   2.424   8.218 -0.4829 -0.0139  0.5929
18410SOL    HW156671   5.704   2.440   8.300 -0.7705  1.7409  0.4428
18410SOL    HW256672   5.727   2.415   8.152 -0.2958  0.7995  0.6696
18411SOL     OW56673   6.887   7.969   5.247  0.6775 -0.0912 -0.0880
18411SOL    HW156674   6.938   7.889   5.238 -0.1482 -0.6441  0.0010
18411SOL    HW256675   6.905   8.000   5.336 -2.0909 -2.4435  1.4877
18412SOL     OW56676   7.218   0.199   5.058 -0.1398  0.0633  0.7599
18412SOL    HW156677   7.201   0.147   4.980  1.2984 -0.3459  0.6816
18412SOL    HW256678   7.206   0.290   5.030 -2.4821 -0.1696  0.8522
18413SOL     OW56679   6.492   1.663   4.395  0.0807  0.0845 -0.7867
18413SOL    HW156680   6.469   1.636   4.306 -1.0775  0.1798 -0.5212
18413SOL    HW256681   6.497   1.581   4.444 -1.9849  0.1854 -0.3243
18414SOL     OW56682   7.926   3.729   6.873 -0.2913 -0.8775  0.0100
18414SOL    HW156683   7.833   3.741   6.895 -0.0134 -0.0858  0.7773
18414SOL    HW256684   7.928   3.734   6.777 -0.8212  0.8761  0.0524
18415SOL     OW56685   6.540   2.174   6.275 -0.1615  0.2830 -0.4316
18415SOL    HW156686   6.500   2.087   6.275  0.7519 -0.1390  0.1589
18415SOL    HW256687   6.465   2.234   6.265 -0.9260 -0.5012  0.4441
18416SOL     OW56688   7.315   3.078   8.655 -0.1798 -0.3882  0.2147
18416SOL    HW156689   7.348   2.993   8.626 -0.0677 -0.3554  0.2438
18416SOL    HW256690   7.393   3.124   8.686 -0.2031 -0.1795 -0.0334
18417SOL     OW56691   7.862   7.994   5.850 -0.5412  0.2566  0.1611
18417SOL    HW156692   7.872   8.089   5.844 -2.0662  0.3924 -0.9404
18417SOL    HW256693   7.890   7.972   5.939  1.1044  1.5352  0.0040
18418SOL     OW56694   6.209   2.743   6.965 -0.1572 -0.1275 -0.0920
18418SOL    HW156695   6.215   2.703   6.878 -1.8582 -2.3049  0.6991
18418SOL    HW256696   6.300   2.755   6.992  0.4164 -0.9332 -1.5244
18419SOL     OW56697   5.440   2.894   6.979  0.1033  0.1938 -0.5861
18419SOL    HW156698   5.525   2.876   6.937  0.1986 -1.0608  0.1143
18419SOL    HW256699   5.406   2.970   6.931  1.8757  1.0962 -0.5098
18420SOL     OW56700   7.755   7.811   6.975  0.1828 -0.3592  0.0805
18420SOL    HW156701   7.692   7.762   6.922  0.3783 -0.9238  0.3618
18420SOL    HW256702   7.838   7.764   6.963 -0.3828 -2.5781  3.4835
18421SOL     OW56703   6.773   1.404   7.911 -0.2300 -0.2939  0.3384
18421SOL    HW156704   6.811   1.491   7.916 -1.8812  0.5134 -0.3089
18421SOL    HW256705   6.700   1.406   7.973 -2.3976 -0.0144 -2.0294
18422SOL     OW56706   6.016   2.867   8.053  0.1854 -0.3359 -0.4694
18422SOL    HW156707   5.948   2.853   7.988 -1.7946  1.1057  1.1652
18422SOL    HW256708   6.095   2.831   8.013 -1.2699 -1.0493 -2.9166
18423SOL     OW56709   7.904   2.162   6.287  0.2686 -0.2870  0.3552
18423SOL    HW156710   7.890   2.068   6.290  3.3006 -0.8438  0.6953
18423SOL    HW256711   7.908   2.183   6.194  0.1556 -0.5953  0.2810
18424SOL     OW56712   0.080   5.978   6.348  0.0421 -0.1113 -0.6172
18424SOL    HW156713   0.032   5.895   6.356  0.4150 -0.4796 -2.0089
18424SOL    HW256714   0.171   5.954   6.365  0.0738  0.1231 -0.4561
18425SOL     OW56715   0.247   1.524   5.870 -0.2215 -0.3060  0.0708
18425SOL    HW156716   0.236   1.439   5.827 -0.9977 -0.7366  1.0799
18425SOL    HW256717   0.208   1.586   5.809  1.5964 -0.4549 -1.3295
18426SOL     OW56718   7.031   1.675   6.567 -0.0660  0.6075 -0.5013
18426SOL    HW156719   6.985   1.682   6.651  0.3991  1.5867 -0.3167
18426SOL    HW256720   6.964   1.694   6.501 -0.3792  0.0562 -0.3544
18427SOL     OW56721   6.171   6.951   6.652 -0.0327 -0.6697 -0.3031
18427SOL    HW156722   6.122   6.886   6.702 -0.9855 -0.9421 -1.5360
18427SOL    HW256723   6.104   6.996   6.600  0.8042  0.2812 -0.5845
18428SOL     OW56724   6.412   7.824   4.981 -0.2615  0.1670  0.0125
18428SOL    HW156725   6.462   7.905   4.982 -0.7994  0.5564 -1.4685
18428SOL    HW256726   6.478   7.755   4.981  0.3487  0.6765 -1.9497
18429SOL     OW56727   0.317   1.451   5.375 -0.0872 -0.0771  0.4347
18429SOL    HW156728   0.362   1.507   5.438  1.1500 -0.5920  0.0403
18429SOL    HW256729   0.387   1.414   5.322 -1.0060 -0.7553 -0.3348
18430SOL     OW56730   7.480   2.507   7.816 -0.1739  0.0334  0.6251
18430SOL    HW156731   7.503   2.591   7.775  0.6062  0.6011  2.1536
18430SOL    HW256732   7.564   2.463   7.829 -0.3817 -0.0350  1.8075
18431SOL     OW56733   7.089   0.355   5.982 -0.3476  0.5144 -0.2393
18431SOL    HW156734   7.112   0.287   5.919  0.5386  0.3344  0.2603
18431SOL    HW256735   7.098   0.313   6.068  2.0556  1.6995  0.1914
18432SOL     OW56736   6.797   0.179   6.799  0.7326 -0.2823 -0.1954
18432SOL    HW156737   6.837   0.258   6.836  1.2041  0.2414 -1.7606
18432SOL    HW256738   6.808   0.113   6.867  2.0692  0.5006  0.3989
18433SOL     OW56739   7.092   1.502   3.804 -0.3023  0.1606 -0.5893
18433SOL    HW156740   7.095   1.508   3.899 -1.4728  1.1739 -0.5900
18433SOL    HW256741   7.000   1.490   3.783  0.1987 -3.1236 -1.5060
18434SOL     OW56742   7.763   2.369   6.349 -0.3241  0.1288  0.6294
18434SOL    HW156743   7.819   2.310   6.299  1.7676  2.5025 -0.0638
18434SOL    HW256744   7.787   2.353   6.440 -1.2391 -1.4116  0.6341
18435SOL     OW56745   0.490   1.562   6.317  0.2340 -0.1549 -0.0399
18435SOL    HW156746   0.430   1.580   6.244  0.7575  2.1208 -0.0123
18435SOL    HW256747   0.436   1.574   6.396  0.4106  0.6512 -0.0329
18436SOL     OW56748   7.120   0.659   7.152  0.2446 -0.0337 -0.3701
18436SOL    HW156749   7.061   0.666   7.227 -1.1198  1.1244 -1.5107
18436SOL    HW256750   7.184   0.729   7.165 -0.6739  0.9067 -0.8656
18437SOL     OW56751   4.534   6.943   6.133 -0.0321 -0.5754 -0.2980
18437SOL    HW156752   4.587   6.863   6.135 -0.4092 -0.8126  0.5918
18437SOL    HW256753   4.447   6.914   6.161  0.6019  0.6979  3.4840
18438SOL     OW56754   6.841   1.430   4.632  0.3488  0.2418 -0.3765
18438SOL    HW156755   6.816   1.356   4.687 -1.9225  1.6215  0.6475
18438SOL    HW256756   6.874   1.495   4.694 -0.9614  1.3172 -0.7507
18439SOL     OW56757   0.895   2.297   6.543 -0.2265  0.3605  0.1618
18439SOL    HW156758   0.820   2.247   6.513 -0.5797  1.5680 -1.0485
18439SOL    HW256759   0.874   2.321   6.633 -0.5807 -0.6292  0.3459
18440SOL     OW56760   6.189   0.319   5.945 -0.2129 -0.4517 -0.0395
18440SOL    HW156761   6.176   0.402   5.899  2.5515 -0.2360 -0.5900
18440SOL    HW256762   6.126   0.322   6.017 -0.4378  1.9565 -0.2548
18441SOL     OW56763   0.763   1.528   6.287 -0.3546 -0.1234  0.0404
18441SOL    HW156764   0.668   1.539   6.293 -0.3441  0.3867 -0.7084
18441SOL    HW256765   0.797   1.563   6.370 -0.6238  2.0135 -0.7080
18442SOL     OW56766   7.808   0.440   6.360  0.3564  0.1445  0.0564
18442SOL    HW156767   7.746   0.513   6.354  0.8377  0.4093 -3.0642
18442SOL    HW256768   7.764   0.376   6.417 -1.1045  1.8404  0.9478
18443SOL     OW56769   7.393   4.485   7.095 -0.1984  0.7156  0.1532
18443SOL    HW156770   7.379   4.557   7.157  1.7244  0.7152  0.6390
18443SOL    HW256771   7.372   4.406   7.144 -2.1356  0.8693 -0.3257
18444SOL     OW56772   7.176   1.336   7.386  0.0334 -0.0004 -1.0413
18444SOL    HW156773   7.131   1.296   7.461  1.2535 -0.6490 -0.6219
18444SOL    HW256774   7.229   1.406   7.425 -0.3135  0.5103 -1.4764
18445SOL     OW56775   7.344   2.223   7.021  0.4896 -0.1978 -0.0906
18445SOL    HW156776   7.277   2.200   7.086  0.5472 -0.3884 -0.0991
18445SOL    HW256777   7.294   2.247   6.943  0.2814  2.5837  0.7737
18446SOL     OW56778   5.617   1.661   8.220 -0.1476 -0.1443  0.0195
18446SOL    HW156779   5.688   1.694   8.275  0.2329  0.3871 -0.7617
18446SOL    HW256780   5.547   1.725   8.231 -0.2059 -0.2351  0.1725
18447SOL     OW56781   1.649   1.914   6.186  0.5115  0.4471 -0.0338
18447SOL    HW156782   1.733   1.921   6.231  0.0307  3.5109  0.6341
18447SOL    HW256783   1.583   1.924   6.256 -0.3305  1.0251 -0.8840
18448SOL     OW56784   7.065   7.783   5.292  0.7914  0.5099 -0.6033
18448SOL    HW156785   7.139   7.844   5.297  2.0105 -0.9869  1.4803
18448SOL    HW256786   7.100   7.708   5.243  0.5832 -0.0697  0.1180
18449SOL     OW56787   5.349   0.149   5.590 -0.5616  0.4821 -0.0628
18449SOL    HW156788   5.396   0.228   5.567 -0.9877  0.6439 -0.3895
18449SOL    HW256789   5.284   0.138   5.521  0.1485 -0.7110 -0.5722
18450SOL     OW56790   7.971   7.657   6.926 -0.2446  0.0706 -0.1019
18450SOL    HW156791   8.023   7.640   6.848 -0.7635 -2.0954 -0.0238
18450SOL    HW256792   8.029   7.634   6.999 -0.3914  0.3016  0.0899
18451SOL     OW56793   6.626   1.950   6.642 -0.3261  0.1540 -0.2730
18451SOL    HW156794   6.617   2.037   6.603  0.2908  0.8404  1.0346
18451SOL    HW256795   6.616   1.889   6.569 -0.2040  1.3455 -1.3110
18452SOL     OW56796   6.987   1.130   6.842  0.3154 -0.6617  0.4663
18452SOL    HW156797   6.986   1.206   6.900 -1.1592  0.0869 -0.4621
18452SOL    HW256798   7.079   1.106   6.834  0.8566  1.2573  0.5188
18453SOL     OW56799   5.591   3.341   7.076 -1.2115  0.7464  0.2870
18453SOL    HW156800   5.499   3.345   7.104 -1.1785  0.2864  0.4742
18453SOL    HW256801   5.641   3.369   7.153 -1.2416  2.3231 -0.2270
18454SOL     OW56802   7.079   3.535   7.254  0.0969  0.8253  0.0209
18454SOL    HW156803   7.141   3.510   7.185  0.4748  0.2598  0.5518
18454SOL    HW256804   7.030   3.455   7.272 -0.5505  1.1831 -0.1535
18455SOL     OW56805   7.907   2.465   4.859 -0.0198 -0.0996  0.3777
18455SOL    HW156806   7.935   2.539   4.806  0.0396  1.3966  2.3726
18455SOL    HW256807   7.823   2.438   4.822 -0.3187  1.3451 -0.0437
18456SOL     OW56808   0.966   1.127   7.369  0.6627  0.4359  0.4206
18456SOL    HW156809   0.917   1.048   7.391  1.8355 -0.6255 -0.6359
18456SOL    HW256810   1.058   1.100   7.372  1.0141  0.8356 -3.1442
18457SOL     OW56811   5.240   1.618   6.405  0.2096  0.4177  0.5788
18457SOL    HW156812   5.234   1.676   6.481 -2.2310  0.7045  0.2614
18457SOL    HW256813   5.321   1.643   6.361  0.7421  1.4838  2.1120
18458SOL     OW56814   4.888   2.530   7.022 -0.1234  0.6694  0.0515
18458SOL    HW156815   4.846   2.521   7.107 -0.3643  1.1327 -0.0172
18458SOL    HW256816   4.830   2.587   6.972 -0.1319  0.1563 -0.5258
18459SOL     OW56817   6.694   0.734   5.937  0.3958  0.1076  0.2463
18459SOL    HW156818   6.767   0.712   5.879  0.1302 -3.0943  0.9325
18459SOL    HW256819   6.718   0.695   6.021 -1.2681  0.6452  1.0107
18460SOL     OW56820   2.146   0.802   6.874  0.2164  0.2837 -0.5584
18460SOL    HW156821   2.146   0.743   6.950  0.8950  2.2629  1.0908
18460SOL    HW256822   2.185   0.750   6.804  1.4580 -1.0314  0.9973
18461SOL     OW56823   7.984   1.287   7.103 -0.3696 -0.1194 -0.5000
18461SOL    HW156824   8.077   1.306   7.115 -0.2425 -0.9151 -0.1644
18461SOL    HW256825   7.938   1.358   7.149  0.0886 -1.3730  2.0361
18462SOL     OW56826   1.637   7.637   5.704  0.5487  0.3044  0.3824
18462SOL    HW156827   1.575   7.696   5.748 -2.1234 -1.3736 -0.8766
18462SOL    HW256828   1.626   7.656   5.611  0.1427 -1.6410 -0.0074
18463SOL     OW56829   5.945   0.049   7.169  0.1028 -0.8464  0.1446
18463SOL    HW156830   5.965  -0.037   7.208  1.9847 -0.0464  1.0758
18463SOL    HW256831   6.014   0.107   7.202 -0.4914  0.7917 -1.3374
18464SOL     OW56832   5.217   1.017   6.031  0.3669  0.0512 -0.4465
18464SOL    HW156833   5.250   1.064   6.108 -0.3233  2.8206 -1.6997
18464SOL    HW256834   5.187   0.933   6.066 -1.2991  1.7191  2.6285
18465SOL     OW56835   6.791   1.839   6.045 -0.8653  0.1484  0.0693
18465SOL    HW156836   6.796   1.926   6.005  0.1983  0.1610  0.2068
18465SOL    HW256837   6.878   1.825   6.082 -1.0876 -0.9016  0.2092
18466SOL     OW56838   7.904   0.627   7.229 -0.4504  0.1198 -0.3177
18466SOL    HW156839   7.816   0.592   7.243  0.0027 -0.0294  2.9684
18466SOL    HW256840   7.963   0.554   7.250  0.5208  0.4361 -1.7519
18467SOL     OW56841   6.014   0.406   5.468  0.2200 -0.2642 -0.0974
18467SOL    HW156842   5.995   0.315   5.446  0.4704 -0.0467 -1.3044
18467SOL    HW256843   6.100   0.404   5.509  0.0619 -0.6084  0.2207
18468SOL     OW56844   6.421   3.148   7.393  0.0685  0.4852 -0.5818
18468SOL    HW156845   6.481   3.136   7.319  0.3271 -0.9406 -0.1685
18468SOL    HW256846   6.479   3.156   7.469 -0.2028  1.8106 -0.4861
18469SOL     OW56847   6.737   7.471   6.904 -0.4615  0.4254 -0.2496
18469SOL    HW156848   6.807   7.421   6.947 -1.2852 -1.4955 -0.9835
18469SOL    HW256849   6.672   7.485   6.972  0.1476  1.2803  0.1720
18470SOL     OW56850   0.667   2.457   5.158  0.0349 -0.1401  0.2927
18470SOL    HW156851   0.629   2.388   5.212  0.2906 -0.9208 -0.5042
18470SOL    HW256852   0.757   2.430   5.144 -0.0907 -0.0772 -0.7150
18471SOL     OW56853   7.186   0.767   5.650  0.1170 -0.5473  0.2063
18471SOL    HW156854   7.147   0.709   5.584 -0.2016 -0.5942  0.4344
18471SOL    HW256855   7.263   0.718   5.681  1.7897  0.5581 -1.9446
18472SOL     OW56856   6.750   2.594   6.478  0.3518 -0.7952 -0.0179
18472SOL    HW156857   6.794   2.667   6.522  0.5241 -0.6189 -0.4825
18472SOL    HW256858   6.658   2.605   6.500  0.7199 -2.4242  2.8491
18473SOL     OW56859   6.497   2.612   6.125 -0.3296  0.0723  0.5597
18473SOL    HW156860   6.457   2.562   6.054  0.8270 -0.1708  0.0580
18473SOL    HW256861   6.564   2.553   6.162  0.8445  1.0991  0.1539
18474SOL     OW56862   4.520   5.914   7.775  0.3073 -0.4285  0.5054
18474SOL    HW156863   4.425   5.906   7.787  0.3374  1.0631  2.1516
18474SOL    HW256864   4.558   5.874   7.854  0.9523  0.5948  0.7398
18475SOL     OW56865   3.531   6.833   8.240 -0.1441 -0.2135 -0.6265
18475SOL    HW156866   3.457   6.816   8.183 -0.3706 -1.0032 -0.1147
18475SOL    HW256867   3.594   6.764   8.220  0.2498  0.1653 -0.7149
18476SOL     OW56868   5.227   1.359   8.244 -0.5365  0.3063  0.4608
18476SOL    HW156869   5.143   1.343   8.200  0.2117 -1.0241 -0.5423
18476SOL    HW256870   5.273   1.420   8.186 -0.7608  0.9842  0.9783
18477SOL     OW56871   5.521   2.403  10.275  0.6376 -0.4540  0.3435
18477SOL    HW156872   5.540   2.377  10.184 -0.0746 -1.2237  0.4116
18477SOL    HW256873   5.457   2.473  10.267  0.7495 -0.3606  0.2507
18478SOL     OW56874   6.621   1.662   7.733 -0.0319  0.0325  0.3752
18478SOL    HW156875   6.696   1.717   7.708 -0.0239 -0.7270 -1.4267
18478SOL    HW256876   6.612   1.675   7.828  1.1207  1.6790  0.3019
18479SOL     OW56877   7.114   1.468   8.955 -0.1488  0.3964  0.6178
18479SOL    HW156878   7.183   1.475   9.021  2.2060  0.7597 -1.7032
18479SOL    HW256879   7.135   1.537   8.892 -0.1689 -2.0267 -2.2442
18480SOL     OW56880   7.091   1.962   7.884  0.3446  0.1979  0.3012
18480SOL    HW156881   7.140   1.902   7.941  0.1906 -0.5868 -0.3634
18480SOL    HW256882   7.017   1.990   7.937  0.1637 -0.5719  0.4717
18481SOL     OW56883   5.497   7.923   7.780  0.1606  0.3438  0.4868
18481SOL    HW156884   5.462   7.853   7.836  0.9216 -0.0195  0.5130
18481SOL    HW256885   5.457   7.906   7.694 -0.8258  0.7673  0.8403
18482SOL     OW56886   6.207   1.789  10.085  0.4051  0.1509  0.0436
18482SOL    HW156887   6.181   1.756  10.171  0.8952  0.6995  0.4031
18482SOL    HW256888   6.165   1.728  10.023 -2.7060  1.5942  0.5355
18483SOL     OW56889   6.100   0.663   9.324 -0.0190 -0.2135 -0.7250
18483SOL    HW156890   6.123   0.756   9.328  1.8084 -0.5830 -1.5483
18483SOL    HW256891   6.168   0.624   9.269 -1.3043 -1.8873 -1.1993
18484SOL     OW56892   5.872   2.436   8.030  0.1070  0.5260  0.3097
18484SOL    HW156893   5.824   2.388   7.963 -1.8738  0.8617  1.3962
18484SOL    HW256894   5.949   2.471   7.985 -1.9519  2.1146 -2.2114
18485SOL     OW56895   6.688   0.950   7.818 -0.0235 -0.0559  0.5458
18485SOL    HW156896   6.619   0.982   7.876  0.8375 -0.1805  1.6793
18485SOL    HW256897   6.768   0.961   7.869  0.7049 -0.5734 -0.4708
18486SOL     OW56898   6.482   1.288   8.044  0.2425  0.1235  0.5143
18486SOL    HW156899   6.389   1.308   8.056  0.1861 -0.7410  1.5984
18486SOL    HW256900   6.527   1.353   8.098  0.4391  2.1292 -1.8653
18487SOL     OW56901   7.558   1.706   7.763  0.4697  0.3960 -0.0485
18487SOL    HW156902   7.587   1.760   7.690 -1.6977  1.5385 -0.1608
18487SOL    HW256903   7.539   1.768   7.833 -1.0206 -0.2898  0.1998
18488SOL     OW56904   6.761   7.655   9.346  0.1180  0.1326 -0.1386
18488SOL    HW156905   6.832   7.673   9.408  0.5751  0.6925 -0.8022
18488SOL    HW256906   6.682   7.651   9.400  0.3942  1.3835  0.4048
18489SOL     OW56907   6.197   1.952   7.734  0.3494  0.2814  0.3197
18489SOL    HW156908   6.192   2.038   7.692 -1.2070 -0.4499 -1.1361
18489SOL    HW256909   6.143   1.895   7.678  1.3897 -1.6653  1.1899
18490SOL     OW56910   7.039   1.692   8.764  0.7695  0.5075 -0.2618
18490SOL    HW156911   7.113   1.750   8.782 -1.5961  3.7641 -0.0603
18490SOL    HW256912   6.963   1.739   8.799 -1.7788 -1.2769 -2.9199
18491SOL     OW56913   5.770   1.416   8.246  0.0718 -0.0549 -0.0285
18491SOL    HW156914   5.714   1.493   8.229 -0.8223  0.2590  3.5458
18491SOL    HW256915   5.765   1.403   8.340 -0.5251 -5.0934 -0.4696
18492SOL     OW56916   7.203   7.541   9.100 -0.3408  0.0177  0.4817
18492SOL    HW156917   7.243   7.625   9.123  1.3868 -0.5180 -0.3194
18492SOL    HW256918   7.126   7.564   9.048 -1.0903  1.1083  2.0160
18493SOL     OW56919   6.690   0.428   7.305  0.4116  0.3183  0.0357
18493SOL    HW156920   6.686   0.506   7.250  1.5655  1.1344  1.0662
18493SOL    HW256921   6.682   0.461   7.395 -0.8385 -0.9223  0.4228
18494SOL     OW56922   5.351   7.294   6.732  0.1123 -0.3704  0.1657
18494SOL    HW156923   5.298   7.240   6.791 -0.1300  0.0663  0.3480
18494SOL    HW256924   5.314   7.277   6.645 -0.0361 -0.4137  0.2370
18495SOL     OW56925   7.637   7.467   8.353  0.0303  0.1184  0.1238
18495SOL    HW156926   7.719   7.472   8.401 -0.2106  2.0990  0.3916
18495SOL    HW256927   7.624   7.373   8.337  1.7934 -0.3009  0.9852
18496SOL     OW56928   6.460   0.535   7.995  0.5364  0.2185 -0.2080
18496SOL    HW156929   6.438   0.462   8.053 -0.7424 -0.4193 -1.4478
18496SOL    HW256930   6.550   0.557   8.017  0.3857 -0.5923  1.3839
18497SOL     OW56931   0.692   0.009   6.796  0.1130  0.1255 -0.1048
18497SOL    HW156932   0.776   0.005   6.750 -0.3123 -1.3976 -0.8139
18497SOL    HW256933   0.630  -0.032   6.735 -0.9032  0.0975  0.9224
18498SOL     OW56934   6.236   1.636   9.121 -0.3306  0.1292 -0.3819
18498SOL    HW156935   6.155   1.593   9.095 -0.5610 -0.6046  1.4049
18498SOL    HW256936   6.277   1.575   9.182  0.7871  1.1812 -0.0405
18499SOL     OW56937   0.263   0.154   7.417 -0.3698 -0.4679 -0.0650
18499SOL    HW156938   0.211   0.230   7.391  0.2257  0.9043  2.4529
18499SOL    HW256939   0.329   0.145   7.348 -1.0062  0.7358 -0.8671
18500SOL     OW56940   6.484   2.965  10.505 -0.1305  0.6077  0.1893
18500SOL    HW156941   6.534   3.047  10.509  1.7733 -0.5266  0.2799
18500SOL    HW256942   6.446   2.965  10.417 -0.4811  1.7373  0.3142
18501SOL     OW56943   6.200   0.637   8.664 -0.0803  0.4564  0.1106
18501SOL    HW156944   6.274   0.644   8.604 -1.8999 -0.1653 -2.3680
18501SOL    HW256945   6.145   0.713   8.644  0.8100  2.1978  3.4777
18502SOL     OW56946   6.923   0.742   7.352  0.2550 -0.0478 -0.0024
18502SOL    HW156947   6.852   0.807   7.352 -1.2251 -1.4322  3.3298
18502SOL    HW256948   6.987   0.777   7.414  1.0436 -0.2807 -0.6671
18503SOL     OW56949   5.841   1.823   8.826  0.9096 -0.2310  0.1296
18503SOL    HW156950   5.814   1.735   8.851 -2.0442  1.0771  2.2068
18503SOL    HW256951   5.899   1.852   8.896  2.5744 -0.7511 -0.9852
18504SOL     OW56952   5.714   1.671   9.316  0.1613 -0.0273 -0.4290
18504SOL    HW156953   5.668   1.754   9.302 -0.6644 -0.6570 -1.6261
18504SOL    HW256954   5.674   1.635   9.395 -0.8367 -0.1728 -0.9839
18505SOL     OW56955   6.216   0.384   8.444  0.0538  0.1873 -0.5769
18505SOL    HW156956   6.249   0.404   8.532 -1.9645  0.9222  0.0896
18505SOL    HW256957   6.194   0.470   8.407 -2.7798 -0.2687 -0.1941
18506SOL     OW56958   6.827   1.506   7.067 -0.1155 -0.6728 -0.1434
18506SOL    HW156959   6.885   1.430   7.060 -0.2855 -0.6957 -1.6495
18506SOL    HW256960   6.743   1.470   7.096  0.0647 -0.9214  0.0738
18507SOL     OW56961   6.819   3.685   8.880  0.1163  0.3139  0.0004
18507SOL    HW156962   6.807   3.779   8.894 -0.9561 -0.2013  3.3058
18507SOL    HW256963   6.730   3.651   8.870  0.3929 -0.5517  0.4472
18508SOL     OW56964   5.753   7.557   7.548  0.1915  0.7101 -0.1753
18508SOL    HW156965   5.673   7.544   7.599 -0.0542  1.0929 -0.4524
18508SOL    HW256966   5.731   7.521   7.461  0.6670 -0.1051  0.0327
18509SOL     OW56967   6.499   0.026   7.569 -0.2457 -0.1199 -0.5170
18509SOL    HW156968   6.427  -0.009   7.517 -0.8213 -0.0425  0.1994
18509SOL    HW256969   6.544   0.088   7.511 -0.0655 -0.9917 -1.3343
18510SOL     OW56970   6.824   0.282   7.899 -0.0460  0.2969  0.1560
18510SOL    HW156971   6.743   0.284   7.848 -0.2108 -1.0599  0.3291
18510SOL    HW256972   6.798   0.311   7.987 -0.1814  0.5626  0.0314
18511SOL     OW56973   5.796   0.300   7.261  1.0625  0.8127  0.3191
18511SOL    HW156974   5.793   0.307   7.166  0.1503  0.5188  0.3123
18511SOL    HW256975   5.840   0.217   7.278  0.7149  0.5896  0.1394
18512SOL     OW56976   1.017   0.109   8.740  0.3954 -0.9186  0.2593
18512SOL    HW156977   0.999   0.019   8.712  0.2402 -0.9055  0.3157
18512SOL    HW256978   0.973   0.117   8.825 -0.2067 -0.5644 -0.0776
18513SOL     OW56979   7.040   2.555   7.201  0.2178  0.2608  0.3452
18513SOL    HW156980   7.027   2.511   7.117  2.9701  0.3578 -0.2380
18513SOL    HW256981   7.045   2.648   7.179 -1.6798  0.5524  1.0278
18514SOL     OW56982   6.060   0.580   8.883 -0.3949 -0.1199 -0.0278
18514SOL    HW156983   6.094   0.602   8.796  0.4639 -0.5480  0.1789
18514SOL    HW256984   5.971   0.548   8.868 -0.2088 -0.3011 -0.7643
18515SOL     OW56985   7.367   7.537   8.235  0.0642 -0.0786 -0.3293
18515SOL    HW156986   7.446   7.486   8.252  0.0869  0.0993  0.1180
18515SOL    HW256987   7.329   7.498   8.156  0.9626  0.2675 -0.9471
18516SOL     OW56988   7.363   0.244   9.164 -0.2196 -0.3949  0.5452
18516SOL    HW156989   7.413   0.294   9.099 -0.8997  0.9840  1.0523
18516SOL    HW256990   7.374   0.293   9.246 -0.3800 -1.4326  1.2002
18517SOL     OW56991   5.222   1.335   7.046  0.4248  0.2150 -0.3356
18517SOL    HW156992   5.250   1.404   6.986 -0.8108  4.1733  3.1220
18517SOL    HW256993   5.130   1.319   7.023  0.6142 -0.0513 -0.9286
18518SOL     OW56994   7.841   2.855   8.220  0.0441 -0.0989  0.8445
18518SOL    HW156995   7.927   2.881   8.252  0.0565  0.0686  0.6768
18518SOL    HW256996   7.780   2.889   8.285  0.0641  0.3102  0.6542
18519SOL     OW56997   6.449   1.440   8.821 -0.1974  0.4289  0.2759
18519SOL    HW156998   6.505   1.441   8.743  1.2866  1.3934  1.3065
18519SOL    HW256999   6.422   1.531   8.832 -1.0159  0.1705  0.4921
18520SOL     OW57000   5.997   3.304  10.247 -0.1964 -0.5238 -0.0601
18520SOL    HW157001   6.031   3.311  10.158  3.1627  2.1161  1.2322
18520SOL    HW257002   5.935   3.376  10.255  0.7568  0.2878  0.1748
18521SOL     OW57003   6.936   7.609   8.570  0.2661  0.2149 -0.0811
18521SOL    HW157004   6.996   7.560   8.625 -0.8492  0.5924  1.5576
18521SOL    HW257005   6.914   7.549   8.499  1.4274 -0.4369  0.0839
18522SOL     OW57006   7.234   0.104   9.438  0.4089  0.7704 -0.0433
18522SOL    HW157007   7.299   0.111   9.508  0.5826 -1.9339  0.2096
18522SOL    HW257008   7.150   0.103   9.484  0.4680  0.0309  0.0706
18523SOL     OW57009   6.553   2.223   6.660 -0.2498 -0.0993 -0.0356
18523SOL    HW157010   6.516   2.224   6.748 -1.7004  0.5103 -0.6280
18523SOL    HW257011   6.486   2.264   6.605  1.0985  0.5831 -1.2454
18524SOL     OW57012   6.643   7.348   7.817 -0.5987 -0.2446 -0.0979
18524SOL    HW157013   6.680   7.430   7.783 -0.5556  0.0040  0.5314
18524SOL    HW257014   6.549   7.362   7.814 -0.5887 -0.1350  0.1018
18525SOL     OW57015   5.939   1.118   6.437  0.0242 -0.2788  0.2048
18525SOL    HW157016   5.867   1.055   6.435 -1.0188  0.9080 -0.9708
18525SOL    HW257017   5.921   1.173   6.513 -0.2368 -0.0659 -0.0108
18526SOL     OW57018   3.776   1.494   7.064 -0.0867 -0.1068  0.8218
18526SOL    HW157019   3.858   1.482   7.016 -1.4405  0.0311 -1.7265
18526SOL    HW257020   3.755   1.407   7.097 -0.6092 -0.9673 -1.5658
18527SOL     OW57021   6.167   0.017   8.868  0.4106  0.4614  0.0565
18527SOL    HW157022   6.207   0.041   8.784 -1.1421  0.4911 -0.7133
18527SOL    HW257023   6.121   0.096   8.896  1.2355  0.5819  1.1749
18528SOL     OW57024   4.939   2.330   9.157 -0.3167  0.2016  0.2480
18528SOL    HW157025   5.028   2.303   9.135  0.5053  1.7363  1.5440
18528SOL    HW257026   4.915   2.276   9.232 -1.4110 -1.8341 -1.4622
18529SOL     OW57027   6.541   6.959   5.713 -0.4256  0.1373  0.1026
18529SOL    HW157028   6.501   7.012   5.644  0.4633 -0.3070 -0.7795
18529SOL    HW257029   6.513   7.001   5.794 -1.9895  0.3211 -0.5007
18530SOL     OW57030   5.661   1.349   8.739 -0.0136 -0.0949  0.0542
18530SOL    HW157031   5.638   1.426   8.687  0.1690  0.4616  0.7790
18530SOL    HW257032   5.741   1.315   8.699 -0.0316  0.1596 -0.1970
18531SOL     OW57033   6.970   2.697   8.138  0.5058 -0.9220 -0.4812
18531SOL    HW157034   6.911   2.678   8.211 -0.9779 -0.7631 -1.5992
18531SOL    HW257035   6.942   2.638   8.068  2.0053 -1.1805 -0.9023
18532SOL     OW57036   6.565   1.817   7.229 -0.0970  1.0838 -0.1207
18532SOL    HW157037   6.606   1.804   7.143 -1.2662  3.1383 -1.0627
18532SOL    HW257038   6.492   1.756   7.230 -0.3954  1.4187 -0.8297
18533SOL     OW57039   6.011   7.606   9.182 -0.1381 -0.6175 -0.4453
18533SOL    HW157040   6.091   7.553   9.176  0.4186  0.3413 -2.0131
18533SOL    HW257041   6.041   7.691   9.213 -0.3276  0.1226 -2.1852
18534SOL     OW57042   7.378   1.543   6.400 -0.3539  0.2192 -0.0942
18534SOL    HW157043   7.446   1.604   6.427 -1.2704  1.6502 -0.8957
18534SOL    HW257044   7.336   1.515   6.482  2.0437 -1.8240  0.5541
18535SOL     OW57045   7.067   1.845   7.153 -0.0860 -0.1297  0.1778
18535SOL    HW157046   7.118   1.801   7.221  0.7268  0.5632  0.0454
18535SOL    HW257047   7.089   1.938   7.163 -1.4323  0.2060  0.1898
18536SOL     OW57048   6.141   0.030   8.496  0.2743 -0.2481 -0.3836
18536SOL    HW157049   6.098  -0.046   8.537 -0.5492 -0.1589 -1.0469
18536SOL    HW257050   6.217   0.046   8.550 -0.5732 -0.3713  0.8931
18537SOL     OW57051   6.024   2.420   8.858 -0.8399  0.0119  0.1331
18537SOL    HW157052   6.081   2.456   8.790 -0.5407 -1.3505 -0.3605
18537SOL    HW257053   6.080   2.357   8.904 -1.5297 -0.2805  0.5775
18538SOL     OW57054   5.089   1.289   7.621 -0.4825 -0.7457  0.1595
18538SOL    HW157055   4.995   1.307   7.618  0.0655  2.6590 -0.2747
18538SOL    HW257056   5.121   1.311   7.533  0.9572  0.0993  0.8462
18539SOL     OW57057   6.450   7.575   8.273  0.2399  0.1998  0.2651
18539SOL    HW157058   6.536   7.587   8.232 -0.6796  1.0145 -1.5568
18539SOL    HW257059   6.434   7.481   8.265  0.6974  0.1385  0.0087
18540SOL     OW57060   0.197   6.748   8.875 -0.0944 -0.5553  0.0264
18540SOL    HW157061   0.118   6.741   8.928  0.0401  1.3285  0.5660
18540SOL    HW257062   0.167   6.789   8.793  0.3153  0.2945  0.2882
18541SOL     OW57063   4.961   5.521   8.839 -0.2563  0.2602 -0.0515
18541SOL    HW157064   4.908   5.547   8.915 -0.4608  1.1103 -0.4707
18541SOL    HW257065   4.897   5.486   8.777  0.0809 -1.8983  0.7392
18542SOL     OW57066   6.348   0.122  10.934  0.2879 -0.3600 -0.3130
18542SOL    HW157067   6.397   0.103  10.854 -0.0897  1.4342 -1.0223
18542SOL    HW257068   6.300   0.041  10.953  1.6768 -1.3661 -0.9233
18543SOL     OW57069   5.225   0.476   8.799  0.2040  0.7253  0.2947
18543SOL    HW157070   5.278   0.398   8.815  0.4854  1.0642  1.1038
18543SOL    HW257071   5.138   0.443   8.777  0.0926  0.1750  1.4698
18544SOL     OW57072   5.449   2.270   8.164  0.3573  0.5513  0.1171
18544SOL    HW157073   5.521   2.316   8.208 -0.0665  1.0024  0.3439
18544SOL    HW257074   5.376   2.332   8.165  0.1255  0.2984 -0.5993
18545SOL     OW57075   6.273   2.180   8.133  0.1137 -0.9056  0.3991
18545SOL    HW157076   6.294   2.086   8.133 -0.5529 -1.0940  2.3632
18545SOL    HW257077   6.179   2.184   8.149 -0.2249  0.0932 -1.5695
18546SOL     OW57078   7.161   0.078   7.867  0.4964  0.3118 -0.3178
18546SOL    HW157079   7.174   0.161   7.914  0.3065 -0.7752  1.7839
18546SOL    HW257080   7.129   0.104   7.781  1.2165  2.4443 -0.0030
18547SOL     OW57081   5.125   7.271   7.098 -0.4530  0.8508 -0.5883
18547SOL    HW157082   5.101   7.278   7.005  1.0843 -0.0679 -1.0954
18547SOL    HW257083   5.085   7.189   7.127 -1.6665  1.5745 -0.1847
18548SOL     OW57084   7.826   3.133   6.379 -0.0302  0.0563 -0.4312
18548SOL    HW157085   7.861   3.062   6.324  0.8163 -0.5140  0.8103
18548SOL    HW257086   7.840   3.104   6.468 -1.2875  1.0282  0.1201
18549SOL     OW57087   4.320   6.427   8.860  0.2108  0.3362  0.2431
18549SOL    HW157088   4.286   6.346   8.823 -0.5725  1.4440 -1.6244
18549SOL    HW257089   4.316   6.414   8.955 -0.0589 -1.7130 -0.0119
18550SOL     OW57090   6.379   1.337   6.820  0.9002 -0.0541  0.1233
18550SOL    HW157091   6.382   1.313   6.728 -0.2480  0.1596  0.0107
18550SOL    HW257092   6.469   1.359   6.843  0.8554  2.4202 -1.6465
18551SOL     OW57093   7.627   0.692   9.831 -0.1339 -0.2333  0.2980
18551SOL    HW157094   7.653   0.731   9.914  0.6696 -2.6447  1.2920
18551SOL    HW257095   7.690   0.620   9.818  0.3056  0.5641 -2.8574
18552SOL     OW57096   6.121   3.187   8.966 -0.5016  0.7481 -0.8382
18552SOL    HW157097   6.048   3.244   8.943 -0.4119  0.4585 -1.8943
18552SOL    HW257098   6.125   3.123   8.894 -1.3030 -1.2787  0.8330
18553SOL     OW57099   6.898   1.139   7.457  0.6755  0.1421 -0.4486
18553SOL    HW157100   6.902   1.160   7.550  0.7049 -2.1298  0.1228
18553SOL    HW257101   6.921   1.221   7.413  1.0789  1.1571  1.5283
18554SOL     OW57102   1.460   1.541   7.064  0.0723  0.1144 -0.3847
18554SOL    HW157103   1.377   1.567   7.106  0.1274  0.0053 -0.2091
18554SOL    HW257104   1.437   1.465   7.011 -0.0311  0.3494 -0.6789
18555SOL     OW57105   7.850   3.098   7.566  0.0273  0.7717  0.1378
18555SOL    HW157106   7.835   3.121   7.658  0.3299 -2.3640  1.0932
18555SOL    HW257107   7.945   3.093   7.558  0.0806  2.5164 -0.8412
18556SOL     OW57108   5.481   7.880   8.263 -0.0621  0.5994 -0.5079
18556SOL    HW157109   5.433   7.951   8.305  1.3775  0.7261  1.0077
18556SOL    HW257110   5.552   7.923   8.216  0.5191  0.2110  0.0058
18557SOL     OW57111   7.570   0.654   9.518 -0.3307  0.5198  0.1801
18557SOL    HW157112   7.606   0.584   9.463 -1.5302 -1.1867  1.4621
18557SOL    HW257113   7.618   0.646   9.600  0.5125  2.1875 -0.1054
18558SOL     OW57114   7.596   1.485   8.366 -0.5351 -0.1692  0.3086
18558SOL    HW157115   7.688   1.467   8.384 -0.6481 -1.9183 -0.6344
18558SOL    HW257116   7.593   1.579   8.346  0.8506  0.1202  1.3468
18559SOL     OW57117   6.456   1.061   7.928 -0.3648  0.4347 -0.4348
18559SOL    HW157118   6.395   1.098   7.864 -3.7295 -1.9291  1.1059
18559SOL    HW257119   6.487   1.136   7.979  0.7307  2.0924 -3.3243
18560SOL     OW57120   1.445   1.824   7.220 -0.1476  0.5631  0.6019
18560SOL    HW157121   1.485   1.895   7.270  2.5228  0.0009 -0.5439
18560SOL    HW257122   1.441   1.857   7.131  1.7347 -0.8292 -0.0774
18561SOL     OW57123   6.079   7.991   7.605 -0.5610  0.2247  0.8102
18561SOL    HW157124   5.991   7.953   7.611 -0.5027 -0.4291 -1.5051
18561SOL    HW257125   6.110   7.995   7.696 -2.5006 -0.6539  1.5653
18562SOL     OW57126   7.672   7.922   7.203 -0.1265 -0.1360 -0.2603
18562SOL    HW157127   7.615   7.997   7.189  1.4896  1.1502 -0.3293
18562SOL    HW257128   7.703   7.899   7.116  2.0716  1.4038  0.0257
18563SOL     OW57129   5.788   0.346   6.431 -0.0372 -0.1983 -0.0104
18563SOL    HW157130   5.811   0.415   6.493 -0.6679  1.2834 -1.3423
18563SOL    HW257131   5.867   0.332   6.380 -0.4812  1.0756 -1.0995
18564SOL     OW57132   0.508   0.711   8.663  0.0676 -0.5037 -0.1252
18564SOL    HW157133   0.571   0.655   8.707 -1.2109 -1.3028  0.7618
18564SOL    HW257134   0.468   0.764   8.733  1.0762  1.3998 -0.9072
18565SOL     OW57135   5.744   0.299   6.999  0.1176  0.7796  0.7281
18565SOL    HW157136   5.780   0.352   6.928 -1.0536  4.5862  2.7107
18565SOL    HW257137   5.660   0.266   6.965  1.0616 -0.3024 -0.6848
18566SOL     OW57138   0.012   1.675   9.220 -0.4716 -0.4934  0.2309
18566SOL    HW157139  -0.025   1.641   9.301 -2.2752  1.9099  0.5291
18566SOL    HW257140  -0.030   1.623   9.151  1.0393 -2.5160  0.7451
18567SOL     OW57141   6.865   0.804   8.913 -0.1156  0.4041 -0.3204
18567SOL    HW157142   6.895   0.760   8.833  0.5353  0.4340 -0.0975
18567SOL    HW257143   6.889   0.896   8.901  0.1327  0.3804 -0.0238
18568SOL     OW57144   6.276   0.132   9.253  0.1066  0.0886 -0.3985
18568SOL    HW157145   6.276   0.036   9.243 -1.9490  0.1652 -1.8160
18568SOL    HW257146   6.286   0.146   9.347  0.4832 -1.5079 -0.1598
18569SOL     OW57147   6.516   2.306   7.635  0.0189  0.1807 -0.1835
18569SOL    HW157148   6.483   2.248   7.703 -0.6309 -1.1160 -1.5335
18569SOL    HW257149   6.482   2.269   7.553  1.4210  1.2049 -1.2950
18570SOL     OW57150   5.926   3.282   8.617  0.0832  0.1443  0.0964
18570SOL    HW157151   5.849   3.226   8.614  0.2202 -0.0891  0.8786
18570SOL    HW257152   5.955   3.288   8.526  0.3232 -1.4016  0.0425
18571SOL     OW57153   6.810   1.867   9.330  0.0728 -0.0412 -0.1747
18571SOL    HW157154   6.808   1.894   9.421  1.1777 -0.9796  0.1444
18571SOL    HW257155   6.833   1.774   9.332 -1.2103 -0.4269 -1.3556
18572SOL     OW57156   7.585   6.842   8.727 -0.4530 -0.4967  0.2633
18572SOL    HW157157   7.571   6.904   8.656 -0.8458 -1.6593 -0.7227
18572SOL    HW257158   7.567   6.756   8.687 -0.3598 -1.2052  1.6815
18573SOL     OW57159   0.228   1.048   9.407 -0.7628  0.3318  0.4772
18573SOL    HW157160   0.279   0.982   9.361 -0.2346  0.5127  0.8038
18573SOL    HW257161   0.236   1.127   9.353 -0.1513  0.5413  0.8733
18574SOL     OW57162   6.183   0.351   6.813 -0.0434  0.0540 -0.1929
18574SOL    HW157163   6.203   0.342   6.720 -0.8332 -0.6645 -0.3149
18574SOL    HW257164   6.087   0.354   6.816 -0.0477 -0.5434  0.6412
18575SOL     OW57165   5.043   2.071   9.501 -0.4744 -0.0942 -0.2950
18575SOL    HW157166   5.070   2.068   9.593 -1.4940 -1.9702 -0.0154
18575SOL    HW257167   5.123   2.051   9.452 -0.0889  0.2177  0.1926
18576SOL     OW57168   6.198   1.611   8.478 -0.1513 -0.9636  0.1795
18576SOL    HW157169   6.211   1.702   8.450 -0.7898 -0.8167  0.3510
18576SOL    HW257170   6.280   1.567   8.455 -0.0236 -0.4560 -0.3507
18577SOL     OW57171   4.615   0.991   9.477  0.8099 -0.5395 -0.0594
18577SOL    HW157172   4.533   0.945   9.460  0.8630 -0.2741 -1.1094
18577SOL    HW257173   4.600   1.081   9.447  0.7624  0.1276  1.8012
18578SOL     OW57174   6.458   0.221   7.979 -0.6541 -0.3037  0.0707
18578SOL    HW157175   6.424   0.243   8.066  0.0108 -0.5279  0.3950
18578SOL    HW257176   6.536   0.168   7.997 -0.5324 -0.3763 -0.6639
18579SOL     OW57177   5.643   0.786   7.140  0.0918 -0.1115 -0.4281
18579SOL    HW157178   5.580   0.847   7.101 -0.0350 -0.1640 -0.3098
18579SOL    HW257179   5.712   0.842   7.175 -0.4107  0.0323  0.3786
18580SOL     OW57180   6.565   3.017   7.619  0.1519  0.0813  0.6864
18580SOL    HW157181   6.570   2.929   7.583 -0.6492 -0.0871  0.9756
18580SOL    HW257182   6.525   3.006   7.705  1.4363  0.5521  1.3714
18581SOL     OW57183   7.731   1.404   7.733  0.2770 -0.1851 -0.1074
18581SOL    HW157184   7.686   1.481   7.769  0.9399 -0.1874  0.7571
18581SOL    HW257185   7.666   1.365   7.675 -2.3971 -2.2743  3.7910
18582SOL     OW57186   4.844   0.939   7.994  0.1511 -0.1100  0.6375
18582SOL    HW157187   4.830   1.006   8.060 -0.4264  0.6793 -0.2519
18582SOL    HW257188   4.809   0.978   7.913  0.8648 -1.0238 -0.1324
18583SOL     OW57189   5.794   1.576   8.914 -0.6122 -0.0722  0.3168
18583SOL    HW157190   5.754   1.494   8.887  0.2690  0.1801 -1.9721
18583SOL    HW257191   5.721   1.628   8.948 -1.6049 -0.9491 -0.3982
18584SOL     OW57192   6.682   0.955  10.336 -0.3373 -0.0615 -0.2223
18584SOL    HW157193   6.768   0.991  10.361 -1.1101  1.3156  0.5825
18584SOL    HW257194   6.673   0.876  10.389  0.5245 -0.3471 -0.4806
18585SOL     OW57195   6.639   0.052   9.401  0.3015 -0.1524  0.2115
18585SOL    HW157196   6.705   0.007   9.348 -0.2065 -0.4798 -0.1534
18585SOL    HW257197   6.569  -0.013   9.412 -0.4362  0.5359 -0.3072
18586SOL     OW57198   5.641   0.710  10.218 -0.0202  0.1340  0.2607
18586SOL    HW157199   5.556   0.670  10.236  0.1986 -0.1970  0.5430
18586SOL    HW257200   5.703   0.662  10.272  0.2315  0.9049  0.6725
18587SOL     OW57201   4.579   3.213  10.597 -0.0462  0.0223 -0.2322
18587SOL    HW157202   4.593   3.158  10.521  2.1359 -0.1307  0.2198
18587SOL    HW257203   4.602   3.301  10.568 -2.3225  0.5633 -0.6001
18588SOL     OW57204   7.636   1.280   8.074 -0.7641 -0.5606  0.4147
18588SOL    HW157205   7.659   1.221   8.002 -2.3161 -0.1544 -0.4665
18588SOL    HW257206   7.643   1.368   8.036  0.9655 -0.1538  1.5488
18589SOL     OW57207   6.187   0.783   7.116  0.3375 -0.1716 -0.1904
18589SOL    HW157208   6.160   0.862   7.163  0.4252 -0.4408  0.3146
18589SOL    HW257209   6.261   0.811   7.063  1.4510 -0.2818  1.2423
18590SOL     OW57210   4.167   0.811   7.349 -0.5757  0.6623  0.0901
18590SOL    HW157211   4.249   0.768   7.376 -0.9297 -0.3357 -0.3624
18590SOL    HW257212   4.195   0.897   7.317  0.5026 -0.2093 -1.4633
18591SOL     OW57213   5.318   2.692   9.028 -0.6874 -0.6403  0.4761
18591SOL    HW157214   5.254   2.740   9.081 -1.7198 -0.9798 -0.4448
18591SOL    HW257215   5.271   2.666   8.949  1.2951  1.5071 -1.5840
18592SOL     OW57216   5.972   1.061   8.784  0.4502 -0.4930  0.2670
18592SOL    HW157217   5.981   1.006   8.707  2.2343 -0.4399  0.3842
18592SOL    HW257218   6.034   1.133   8.770 -0.0678  0.1622  1.2020
18593SOL     OW57219   7.280   1.174  10.214 -0.2280  0.2802 -0.5232
18593SOL    HW157220   7.374   1.191  10.215  0.0404 -0.9417 -1.7620
18593SOL    HW257221   7.251   1.191  10.304  1.8416 -2.8213  0.9012
18594SOL     OW57222   5.585   1.538   5.886 -0.5390 -0.0410 -0.0844
18594SOL    HW157223   5.490   1.541   5.886 -0.6225 -1.7984  0.0659
18594SOL    HW257224   5.608   1.465   5.829  0.8691  2.1493 -2.5717
18595SOL     OW57225   7.960   0.414   8.315 -0.4043  0.7237  0.0416
18595SOL    HW157226   7.986   0.323   8.300  0.5832  0.6352  2.0387
18595SOL    HW257227   7.956   0.452   8.227 -2.0615 -1.5318 -0.9462
18596SOL     OW57228   0.192   1.618   8.396  0.2732 -0.1656 -0.5741
18596SOL    HW157229   0.162   1.582   8.312 -0.8807  1.1632 -0.7623
18596SOL    HW257230   0.285   1.638   8.381  0.2227 -0.4484 -1.3473
18597SOL     OW57231   5.859   1.831   9.852 -0.0273 -0.1620  0.4904
18597SOL    HW157232   5.939   1.880   9.870  0.4338 -0.1981 -1.2540
18597SOL    HW257233   5.791   1.877   9.901  0.7109  1.0916  0.3771
18598SOL     OW57234   5.397   3.179  11.061 -0.1507 -0.3112  0.0935
18598SOL    HW157235   5.366   3.189  10.971 -0.7332 -0.2796  0.2899
18598SOL    HW257236   5.319   3.195  11.114  0.3812  0.5447  0.6375
18599SOL     OW57237   5.377   7.786   7.993  0.4124  0.3291 -0.1295
18599SOL    HW157238   5.400   7.815   8.081  1.4232  0.7391 -0.5135
18599SOL    HW257239   5.292   7.827   7.975  0.6501  1.0178  0.2944
18600SOL     OW57240   7.719   0.749   8.023 -0.2011 -0.4365  0.1781
18600SOL    HW157241   7.745   0.841   8.019  2.1636 -1.0759 -2.0898
18600SOL    HW257242   7.799   0.701   8.003 -2.0507 -2.8368 -2.2054
18601SOL     OW57243   7.917   3.239   8.152  0.2196  0.1606  0.2331
18601SOL    HW157244   7.883   3.287   8.228 -0.1618  0.2853 -0.0157
18601SOL    HW257245   7.839   3.210   8.105  0.4526  0.4155 -0.3217
18602SOL     OW57246   0.361   1.990   7.194 -0.6462  0.2541  0.5605
18602SOL    HW157247   0.408   1.929   7.251  0.0151  0.9827  0.8184
18602SOL    HW257248   0.289   1.938   7.158  0.3204 -0.8862  0.1861
18603SOL     OW57249   4.703   1.625   9.119 -0.4578  0.5642  0.5040
18603SOL    HW157250   4.776   1.687   9.110 -0.8979  0.8761 -1.1585
18603SOL    HW257251   4.743   1.539   9.107 -0.2659  0.6940  0.2009
18604SOL     OW57252   6.191   7.132   7.247 -0.2750 -0.4192 -0.1880
18604SOL    HW157253   6.182   7.040   7.221 -0.4812 -0.2111 -0.8638
18604SOL    HW257254   6.118   7.147   7.307  0.4384 -1.0129  0.8638
18605SOL     OW57255   6.621   7.071   7.816  0.5862  0.0864 -0.0571
18605SOL    HW157256   6.636   7.165   7.819  0.6298  0.0716  0.2722
18605SOL    HW257257   6.704   7.034   7.786  0.8984  0.0827  0.7699
18606SOL     OW57258   6.906   0.561   8.198  0.5550 -0.0182 -0.0429
18606SOL    HW157259   6.856   0.620   8.141  0.0828  0.1228  0.5026
18606SOL    HW257260   6.995   0.596   8.196  0.2515  0.8260  0.3851
18607SOL     OW57261   6.630   2.432   7.857 -0.3948  0.0973  0.1825
18607SOL    HW157262   6.595   2.401   7.774 -3.1108 -0.0873  1.2823
18607SOL    HW257263   6.605   2.364   7.920  2.2143 -0.1311  1.1026
18608SOL     OW57264   6.326   1.778   6.072 -0.4729 -0.2547 -0.3927
18608SOL    HW157265   6.232   1.761   6.069 -0.2117 -1.7872 -2.5244
18608SOL    HW257266   6.366   1.692   6.081  0.7614  0.4324  1.1997
18609SOL     OW57267   6.931   7.881   8.620  0.6542 -0.1079 -0.7032
18609SOL    HW157268   7.002   7.896   8.558  0.1330 -0.3803 -1.3771
18609SOL    HW257269   6.907   7.790   8.607 -0.1658  0.1256 -0.8482
18610SOL     OW57270   6.412   1.235   9.012  0.1777 -0.0211 -0.1009
18610SOL    HW157271   6.422   1.293   8.937 -0.8197  0.1245 -0.1307
18610SOL    HW257272   6.406   1.147   8.974  0.4925 -0.0267 -0.1369
18611SOL     OW57273   0.720   1.627  11.070 -0.5953  0.0954  0.0497
18611SOL    HW157274   0.629   1.648  11.052 -0.7442  0.0684  0.7497
18611SOL    HW257275   0.732   1.539  11.035 -0.8026  0.1527 -0.1645
18612SOL     OW57276   5.562   0.204   7.736 -0.0252 -0.4469  0.1557
18612SOL    HW157277   5.520   0.234   7.817  1.7690  0.2639  0.8599
18612SOL    HW257278   5.538   0.111   7.730 -0.9389 -0.2880  0.9955
18613SOL     OW57279   0.300   6.776   8.539 -0.4795 -0.8774  0.1025
18613SOL    HW157280   0.387   6.741   8.558 -0.6364 -2.2957 -1.5617
18613SOL    HW257281   0.247   6.699   8.519 -2.3718 -0.1226  1.8530
18614SOL     OW57282   7.889   2.429   8.645  0.3678 -0.1092 -0.0019
18614SOL    HW157283   7.819   2.436   8.581  0.7298 -1.4222 -0.5634
18614SOL    HW257284   7.960   2.386   8.599  1.6524  1.3948  0.4992
18615SOL     OW57285   0.028   1.872   8.328  0.1138 -0.0336  0.1230
18615SOL    HW157286   0.094   1.869   8.258  1.5436  0.6369  1.3915
18615SOL    HW257287   0.054   1.802   8.388 -1.9070 -1.5320 -0.6444
18616SOL     OW57288   6.684   0.604   9.421  0.0729 -0.5775  0.2321
18616SOL    HW157289   6.648   0.686   9.453 -0.9173 -0.5905 -0.7767
18616SOL    HW257290   6.770   0.598   9.461 -0.4072  0.2551  1.4287
18617SOL     OW57291   5.788   0.916   8.942  0.3100 -0.3533  0.2572
18617SOL    HW157292   5.847   0.881   9.008  0.0458 -0.9263  0.1951
18617SOL    HW257293   5.840   0.982   8.896  0.5461 -0.0723  0.9258
18618SOL     OW57294   6.313   7.634   7.639  0.5412 -0.1259 -0.2898
18618SOL    HW157295   6.283   7.678   7.559  1.0676  1.0922  0.1470
18618SOL    HW257296   6.350   7.705   7.692 -1.8683 -0.4719  2.0632
18619SOL     OW57297   7.804   2.024   8.371  0.2862 -0.2994  0.0534
18619SOL    HW157298   7.800   2.039   8.466 -0.3927  1.2936 -0.1903
18619SOL    HW257299   7.892   1.990   8.356  1.6450  2.4992  0.9332
18620SOL     OW57300   6.643   1.030   8.179  0.2525 -0.0377  0.0996
18620SOL    HW157301   6.589   1.107   8.198  0.2952  0.1030 -0.3211
18620SOL    HW257302   6.579   0.962   8.157  0.2333  0.0327 -0.0645
18621SOL     OW57303   0.959   1.109   7.801 -0.4463 -0.8242 -0.3045
18621SOL    HW157304   0.921   1.136   7.885 -1.5912  2.4536 -1.7439
18621SOL    HW257305   0.898   1.043   7.768 -1.1864 -0.5485  0.4660
18622SOL     OW57306   5.419   1.158   8.581  0.1058  0.2593  0.2349
18622SOL    HW157307   5.514   1.155   8.570  0.0414  0.3065 -0.3651
18622SOL    HW257308   5.399   1.085   8.640  0.0953 -2.3856 -2.7692
18623SOL     OW57309   6.900   0.972   9.986 -0.1205 -0.0786  0.2999
18623SOL    HW157310   6.934   1.053   9.947 -0.4789  0.6070  1.3661
18623SOL    HW257311   6.854   1.001  10.064 -1.3334 -1.2042  0.0387
18624SOL     OW57312   7.920   7.043   7.063  0.2853  0.1393 -0.2479
18624SOL    HW157313   7.929   6.972   6.999 -0.3138  0.1231 -0.3248
18624SOL    HW257314   8.002   7.042   7.112  1.3771  1.0855 -1.9440
18625SOL     OW57315   6.465   2.586   6.515 -0.3089  0.5657 -0.0435
18625SOL    HW157316   6.408   2.554   6.585 -0.4698 -0.7168 -0.7168
18625SOL    HW257317   6.406   2.634   6.457 -0.2671  1.1913  0.4180
18626SOL     OW57318   6.830   2.261  10.539 -0.0180 -0.0193  0.7323
18626SOL    HW157319   6.784   2.331  10.493 -0.8188 -1.3369 -0.5483
18626SOL    HW257320   6.891   2.226  10.475 -0.7699 -1.5413  0.7929
18627SOL     OW57321   6.994   2.630   6.375  0.5815 -0.0177  0.0605
18627SOL    HW157322   6.899   2.619   6.368  0.4329  1.1588 -0.0812
18627SOL    HW257323   7.011   2.713   6.330  1.5786  0.1761  0.7748
18628SOL     OW57324   5.594   2.185   8.788 -0.3473  0.1331 -0.1487
18628SOL    HW157325   5.519   2.135   8.819 -0.7657 -0.6404 -2.2207
18628SOL    HW257326   5.557   2.250   8.729  0.6087 -0.8645 -1.9539
18629SOL     OW57327   6.439   1.565   7.560  0.2410 -0.1053 -0.1698
18629SOL    HW157328   6.506   1.609   7.612  0.1533  1.6458 -1.4526
18629SOL    HW257329   6.369   1.630   7.552 -1.1200 -1.4754  0.1589
18630SOL     OW57330   0.057   0.595   9.740 -0.4661  0.6735  0.0800
18630SOL    HW157331   0.090   0.638   9.661 -0.0697 -0.1180 -0.1971
18630SOL    HW257332  -0.032   0.567   9.715  0.1086 -0.6976 -0.5482
18631SOL     OW57333   7.812   0.318   7.359  0.3010  0.2157 -0.2222
18631SOL    HW157334   7.877   0.328   7.289 -1.1063 -0.0064 -1.6323
18631SOL    HW257335   7.800   0.223   7.366 -0.6104  0.2808 -0.7296
18632SOL     OW57336   6.154   0.630   8.301  0.1625 -0.4105 -0.0364
18632SOL    HW157337   6.182   0.584   8.222  1.3947  0.8093 -0.3450
18632SOL    HW257338   6.128   0.717   8.271 -1.2911 -0.5773  0.6530
18633SOL     OW57339   0.989   2.025   5.895  0.3721 -0.4702  0.1769
18633SOL    HW157340   0.977   2.070   5.811  0.5473 -0.3441  0.2174
18633SOL    HW257341   0.957   2.087   5.960  0.1275 -0.6153  0.1939
18634SOL     OW57342   5.852   2.609   8.844 -0.6525  0.6823 -0.0243
18634SOL    HW157343   5.765   2.568   8.837 -0.1448 -0.2722 -0.9598
18634SOL    HW257344   5.913   2.536   8.845  0.1178  1.2734  1.9630
18635SOL     OW57345   6.862   2.130   5.723 -0.2033 -0.1661 -0.3928
18635SOL    HW157346   6.797   2.156   5.658 -0.9248 -0.7525  0.0793
18635SOL    HW257347   6.937   2.187   5.706 -1.0340  0.9075 -0.5983
18636SOL     OW57348   7.008   7.986   8.347 -0.1824  0.0315 -0.1361
18636SOL    HW157349   7.053   8.035   8.417 -1.5020 -0.1624  0.8905
18636SOL    HW257350   7.056   7.903   8.341 -1.0389 -0.6702  1.7847
18637SOL     OW57351   7.199   2.882   8.203 -1.0999 -0.1363 -0.2710
18637SOL    HW157352   7.266   2.926   8.151  0.6558 -0.8618  1.2633
18637SOL    HW257353   7.150   2.830   8.139 -0.4347  0.6794 -1.4873
18638SOL     OW57354   6.460   3.103   9.254  0.5143  0.0775 -0.2469
18638SOL    HW157355   6.513   3.033   9.291  1.6217  0.9069 -0.1962
18638SOL    HW257356   6.453   3.082   9.161 -1.3070 -1.4057  0.1712
18639SOL     OW57357   7.245   2.434   8.576 -0.0012  0.6533 -0.3536
18639SOL    HW157358   7.191   2.379   8.633 -1.1399 -0.4745 -2.4053
18639SOL    HW257359   7.207   2.423   8.489  2.6238  1.0228 -1.6490
18640SOL     OW57360   5.864   0.905   7.204  0.5774 -0.5899 -0.0186
18640SOL    HW157361   5.871   0.969   7.274  0.7471 -0.8833  0.2384
18640SOL    HW257362   5.915   0.941   7.132  0.9350 -0.5868  0.2368
18641SOL     OW57363   6.166   2.961   7.766 -0.3195 -0.2811 -0.0400
18641SOL    HW157364   6.248   2.961   7.816  0.2903 -0.6318 -1.0053
18641SOL    HW257365   6.163   3.047   7.725 -0.8388  0.0212  0.6211
18642SOL     OW57366   7.420   0.214   9.881 -0.0208  0.3190  0.2634
18642SOL    HW157367   7.454   0.276   9.945  1.0286 -0.8992  0.9354
18642SOL    HW257368   7.447   0.128   9.914 -2.1780 -0.5975 -0.1740
18643SOL     OW57369   5.357   0.873   5.567  0.1435 -0.2276 -0.0764
18643SOL    HW157370   5.311   0.839   5.490 -0.2924  0.0178  0.0702
18643SOL    HW257371   5.402   0.796   5.603 -0.0163 -0.4372 -0.3185
18644SOL     OW57372   7.384   1.028   8.051  0.3095 -0.5009  0.6438
18644SOL    HW157373   7.404   1.100   7.993  0.2515 -1.6839 -0.9009
18644SOL    HW257374   7.322   1.064   8.114  0.9166  0.9906  0.4290
18645SOL     OW57375   7.455   6.221   8.282 -0.0157  0.6971  0.4653
18645SOL    HW157376   7.456   6.317   8.286  2.2694  0.7629 -0.6072
18645SOL    HW257377   7.546   6.195   8.293 -0.2123 -1.2126 -1.6395
18646SOL     OW57378   7.544   0.371   7.355 -0.2840  0.6787  0.0026
18646SOL    HW157379   7.554   0.455   7.310  0.4363  0.8737  0.5017
18646SOL    HW257380   7.628   0.358   7.400 -0.6416  0.0323  0.5026
18647SOL     OW57381   0.385   1.577  10.434  0.4299  0.1053 -0.1078
18647SOL    HW157382   0.384   1.662  10.476  2.0817 -0.3737  0.9772
18647SOL    HW257383   0.308   1.532  10.470  1.5001 -0.0975  2.0721
18648SOL     OW57384   3.463   6.870   7.619  0.1786  0.4880 -0.0739
18648SOL    HW157385   3.394   6.812   7.652  0.3132  0.6058  0.4320
18648SOL    HW257386   3.528   6.871   7.689  0.1733  1.2535 -0.0739
18649SOL     OW57387   7.528   2.764   7.736  0.0764 -0.1606  0.1128
18649SOL    HW157388   7.607   2.813   7.715 -0.5083  0.8353  0.1557
18649SOL    HW257389   7.462   2.797   7.674 -0.5820 -0.1738  0.7855
18650SOL     OW57390   6.214   0.938   9.494  0.4712 -0.2998 -0.4208
18650SOL    HW157391   6.232   1.022   9.536 -1.7732 -0.0908  0.2935
18650SOL    HW257392   6.202   0.877   9.566 -0.9595 -0.5047 -0.8009
18651SOL     OW57393   7.914   1.985   8.039 -0.0452 -0.6765  0.5011
18651SOL    HW157394   7.963   2.017   7.964  0.4448 -1.9215  0.2687
18651SOL    HW257395   7.849   2.053   8.056  0.0313 -0.2407 -0.8598
18652SOL     OW57396   5.900   6.318   6.977 -0.5365 -0.1080  0.2147
18652SOL    HW157397   5.843   6.358   6.912  0.5841  0.8065 -0.2442
18652SOL    HW257398   5.857   6.334   7.061 -0.2115  1.9877  0.0314
18653SOL     OW57399   6.021   2.204   9.549 -0.0272  0.3351 -0.2628
18653SOL    HW157400   5.984   2.284   9.587  0.6715  0.3014  0.5186
18653SOL    HW257401   6.062   2.234   9.468  1.2190  1.0026  0.5753
18654SOL     OW57402   6.588   0.749  10.495  0.0171  0.4909 -0.0445
18654SOL    HW157403   6.677   0.716  10.511 -0.7699 -0.8112  2.0306
18654SOL    HW257404   6.545   0.680  10.444 -0.1855  0.5409  0.0593
18655SOL     OW57405   0.376   1.022   9.638  0.1152  0.2760  0.0901
18655SOL    HW157406   0.309   1.060   9.580  0.2303  0.2905 -0.0326
18655SOL    HW257407   0.405   1.096   9.691  2.0993  0.9549 -1.7975
18656SOL     OW57408   7.326   0.984   7.710  0.1279  0.1518 -0.3621
18656SOL    HW157409   7.342   1.074   7.740 -2.9615  0.8664 -0.5149
18656SOL    HW257410   7.245   0.958   7.754  1.7888 -3.3055  1.0560
18657SOL     OW57411   5.664   0.354   9.008  0.2483 -0.2802 -0.4274
18657SOL    HW157412   5.716   0.356   9.088  0.0929  2.0855 -0.2901
18657SOL    HW257413   5.665   0.263   8.980  2.1370 -0.7917  1.0721
18658SOL     OW57414   0.339   2.217   8.678  0.5792  0.1754 -0.1516
18658SOL    HW157415   0.334   2.195   8.585 -1.4810 -1.3961  0.2632
18658SOL    HW257416   0.356   2.133   8.721 -0.3959  0.5504  1.0100
18659SOL     OW57417   5.851   3.684   8.253  0.5868 -0.4154  0.0493
18659SOL    HW157418   5.896   3.740   8.189  1.1737 -0.6516  0.2488
18659SOL    HW257419   5.884   3.596   8.235  0.4352 -0.5444  0.4053
18660SOL     OW57420   6.207   1.335   8.094  0.1605  0.0328 -0.2898
18660SOL    HW157421   6.194   1.345   8.000  0.8788 -1.7844 -0.6231
18660SOL    HW257422   6.182   1.420   8.131 -1.1874  0.4387 -1.9909
18661SOL     OW57423   5.335   1.483  10.219 -0.2511 -0.0991  0.0068
18661SOL    HW157424   5.289   1.532  10.287 -0.9831 -0.7195 -0.0344
18661SOL    HW257425   5.394   1.547  10.179 -0.6285  0.5476  0.4744
18662SOL     OW57426   7.415   1.215   7.827  0.2981 -0.6003 -0.1696
18662SOL    HW157427   7.387   1.293   7.875 -1.3348 -2.7035  2.5923
18662SOL    HW257428   7.485   1.246   7.769  1.2644  2.4939  2.3659
18663SOL     OW57429   6.802   7.931   7.453 -0.1642 -0.3239 -0.2164
18663SOL    HW157430   6.814   7.891   7.367  0.7497  1.2992 -0.8668
18663SOL    HW257431   6.888   7.924   7.495 -0.3455 -0.2109  0.1767
18664SOL     OW57432   4.733   1.144   9.106  0.3464  0.0752  0.4908
18664SOL    HW157433   4.644   1.114   9.123 -0.1286  1.1521  0.0274
18664SOL    HW257434   4.788   1.092   9.164 -0.2900 -2.3404 -0.9270
18665SOL     OW57435   6.382   0.337   8.202 -0.1543 -0.8876  0.8785
18665SOL    HW157436   6.316   0.307   8.264 -1.1955  1.9726  1.3085
18665SOL    HW257437   6.419   0.416   8.242  1.6638 -0.9285 -0.5723
18666SOL     OW57438   5.980   2.786  10.938  0.0536 -0.0962  0.2203
18666SOL    HW157439   5.956   2.703  10.897 -0.5579 -0.2090  0.7853
18666SOL    HW257440   5.908   2.805  10.998  1.4522 -0.5574  2.1687
18667SOL     OW57441   7.860   7.995   9.155  0.6628 -0.1364  0.0316
18667SOL    HW157442   7.777   7.960   9.123  0.8363  0.6241 -1.3531
18667SOL    HW257443   7.925   7.929   9.131  0.7875  0.4134 -1.2609
18668SOL     OW57444   5.873   1.260   7.626 -0.3658 -0.2874 -0.4872
18668SOL    HW157445   5.887   1.196   7.695 -0.1775  0.5498  0.2681
18668SOL    HW257446   5.809   1.321   7.662 -0.2188  0.1971 -1.0228
18669SOL     OW57447   7.038   2.054   8.963  0.0879  0.2109 -0.1149
18669SOL    HW157448   7.047   2.132   8.909  0.8448 -0.0492 -0.3714
18669SOL    HW257449   7.080   1.984   8.913  2.1677  0.2552  1.4182
18670SOL     OW57450   5.908   1.784  10.341 -0.1878 -0.0567 -0.0776
18670SOL    HW157451   5.880   1.812  10.428 -2.4013 -0.1677 -0.7023
18670SOL    HW257452   5.839   1.725  10.311  0.2069  0.4520 -2.1531
18671SOL     OW57453   5.388   1.505   8.091 -0.5005 -0.5605 -0.0335
18671SOL    HW157454   5.410   1.527   8.000 -0.5826 -0.0777  0.0614
18671SOL    HW257455   5.439   1.567   8.143 -1.6742  0.2235  0.2028
18672SOL     OW57456   4.596   6.308   8.671 -0.1220 -0.3156  0.0779
18672SOL    HW157457   4.648   6.261   8.736 -1.4522 -0.8016  0.8225
18672SOL    HW257458   4.510   6.268   8.675 -0.8222  1.0610 -0.4781
18673SOL     OW57459   7.104   0.571   9.263 -0.3325 -0.0880  0.3146
18673SOL    HW157460   7.077   0.481   9.248 -0.0405  0.0586 -1.2730
18673SOL    HW257461   7.200   0.567   9.263 -0.2620  0.4440 -1.6437
18674SOL     OW57462   5.247   0.771   7.623 -0.1849  0.0099 -0.1443
18674SOL    HW157463   5.246   0.866   7.631  1.3907 -0.0551  1.5350
18674SOL    HW257464   5.155   0.747   7.612 -0.4826  1.7844 -2.0099
18675SOL     OW57465   5.486   6.584   7.895  0.0655  0.1939 -0.1647
18675SOL    HW157466   5.577   6.574   7.924 -0.2710 -2.8809  0.1788
18675SOL    HW257467   5.435   6.531   7.956 -1.9243  1.3670 -0.7124
18676SOL     OW57468   0.365   0.024   7.062  0.2225  0.2440  0.0604
18676SOL    HW157469   0.408  -0.030   7.128  2.5069 -0.6799 -2.0274
18676SOL    HW257470   0.326  -0.040   7.002 -2.0778  1.0636  0.5944
18677SOL     OW57471   7.012   0.268   8.226  0.3919 -0.1735  0.0381
18677SOL    HW157472   7.017   0.175   8.204 -0.7875  0.1405 -1.8070
18677SOL    HW257473   6.967   0.270   8.310  1.9663 -1.3075  0.9636
18678SOL     OW57474   7.826   0.713   8.845 -0.0796 -0.0909 -0.0607
18678SOL    HW157475   7.830   0.717   8.940  1.3625  1.3665 -0.1389
18678SOL    HW257476   7.880   0.638   8.821 -0.1270 -0.2237  0.2523
18679SOL     OW57477   5.007   7.862   8.236 -0.0362  0.1640  0.5099
18679SOL    HW157478   4.930   7.810   8.259  0.7873 -1.2257  0.2823
18679SOL    HW257479   4.989   7.893   8.147  1.0207 -3.0404 -0.9661
18680SOL     OW57480   6.937   2.097   6.979  0.1716 -0.7071  0.6119
18680SOL    HW157481   6.928   2.044   6.900 -0.9315 -0.3153  0.4577
18680SOL    HW257482   6.866   2.067   7.036  1.8874 -2.1157  2.1645
18681SOL     OW57483   7.930   7.597   9.563  0.2172  0.1135 -0.4531
18681SOL    HW157484   7.844   7.554   9.557  1.0585 -1.8793  0.6566
18681SOL    HW257485   7.982   7.557   9.493  1.3967 -1.7585  1.3825
18682SOL     OW57486   4.990   0.792   9.838 -0.2710 -0.2558 -0.4252
18682SOL    HW157487   4.913   0.779   9.783  0.6768  0.8846 -2.1244
18682SOL    HW257488   5.055   0.730   9.805 -0.1550 -0.5873  0.3990
18683SOL     OW57489   7.179   0.456   8.150 -0.2340  0.5901 -0.0068
18683SOL    HW157490   7.201   0.428   8.061 -2.4979  1.4073 -0.9133
18683SOL    HW257491   7.109   0.397   8.178 -0.0058  0.7623  0.9609
18684SOL     OW57492   6.584   1.892  12.017  0.1224 -0.2231 -0.3137
18684SOL    HW157493   6.575   1.929  12.104 -0.9475 -0.0468 -0.4953
18684SOL    HW257494   6.679   1.891  12.002  0.4819 -2.0733  1.6247
18685SOL     OW57495   7.383   7.797  10.245 -0.5385 -0.3071 -0.4740
18685SOL    HW157496   7.412   7.856  10.174  0.6797  0.0296  0.2702
18685SOL    HW257497   7.367   7.855  10.319 -0.6568 -0.7740 -0.1327
18686SOL     OW57498   6.436   7.267   9.098 -0.0014  0.0484 -0.0123
18686SOL    HW157499   6.408   7.240   9.011 -0.2325 -0.3797  0.1925
18686SOL    HW257500   6.367   7.326   9.128 -0.3302 -0.4296  0.1956
18687SOL     OW57501   0.639   7.891   8.932  0.0832 -0.2226 -0.2749
18687SOL    HW157502   0.549   7.917   8.912  0.2900  1.5742  0.8640
18687SOL    HW257503   0.687   7.903   8.850 -0.7244 -1.4285 -0.9545
18688SOL     OW57504   5.556   0.673   8.439  0.1729  0.0240  0.1796
18688SOL    HW157505   5.489   0.639   8.497  0.0768  1.2604  0.8371
18688SOL    HW257506   5.626   0.703   8.498 -0.4434  2.4252 -0.1853
18689SOL     OW57507   5.980   7.581  10.884  0.6109 -0.1199 -0.1549
18689SOL    HW157508   6.071   7.582  10.854  0.5213 -1.0504 -0.4673
18689SOL    HW257509   5.934   7.529  10.819 -0.3758  1.2857 -0.6280
18690SOL     OW57510   7.899   1.705  10.411  0.2906 -0.0231 -0.4173
18690SOL    HW157511   7.821   1.751  10.381 -0.2036  0.6262  1.6817
18690SOL    HW257512   7.962   1.774  10.429 -0.4121 -0.0387  2.6348
18691SOL     OW57513   6.848   1.656  11.036 -0.2231 -0.5504 -0.3669
18691SOL    HW157514   6.853   1.750  11.053 -1.8259 -0.9087  2.7598
18691SOL    HW257515   6.936   1.624  11.052 -0.4754 -0.0338  2.5509
18692SOL     OW57516   4.985   1.415  11.217 -0.4954  0.1688 -0.5876
18692SOL    HW157517   4.982   1.355  11.143  0.2701  0.9854 -1.3034
18692SOL    HW257518   4.938   1.493  11.187 -0.2044  0.4951 -0.2123
18693SOL     OW57519   6.137   2.300   9.831  0.0162 -0.1168 -0.2375
18693SOL    HW157520   6.084   2.309   9.910  1.2719 -0.1287  0.6407
18693SOL    HW257521   6.073   2.296   9.760 -1.1814 -0.8472  0.8273
18694SOL     OW57522   6.710   7.181  11.763  0.1548 -0.4331  0.9194
18694SOL    HW157523   6.775   7.136  11.818  1.4867  0.1264 -0.1330
18694SOL    HW257524   6.756   7.197  11.681 -1.0569  0.7622  0.4471
18695SOL     OW57525   6.338   7.322   8.319 -0.3275  0.1331  0.1059
18695SOL    HW157526   6.243   7.335   8.322 -0.5408 -0.9553 -1.0724
18695SOL    HW257527   6.350   7.251   8.256  1.4994  2.4140 -2.3030
18696SOL     OW57528   7.232   1.350   9.393 -0.4568 -0.1117 -0.0605
18696SOL    HW157529   7.196   1.330   9.307  0.6026  1.1781 -0.8432
18696SOL    HW257530   7.163   1.326   9.455 -1.7585  0.1924 -1.3565
18697SOL     OW57531   6.731   0.528   9.954  0.5932 -0.0642 -0.2166
18697SOL    HW157532   6.720   0.623   9.946  0.4489 -0.1022 -0.4921
18697SOL    HW257533   6.791   0.517  10.028  1.0347  0.2639 -0.5183
18698SOL     OW57534   2.635   7.138   9.579 -0.6681 -0.2448  0.6028
18698SOL    HW157535   2.624   7.086   9.499 -2.7004  0.5320  0.3050
18698SOL    HW257536   2.720   7.111   9.614  0.4808 -0.3088 -2.0246
18699SOL     OW57537   7.944   0.434   8.867 -0.0503  0.1195 -0.3619
18699SOL    HW157538   7.991   0.408   8.788 -0.3509 -0.3094 -0.4019
18699SOL    HW257539   7.980   0.378   8.936 -0.7741 -0.4970 -0.4683
18700SOL     OW57540   6.611   0.096  10.270  0.0438 -0.0495  0.0434
18700SOL    HW157541   6.694   0.077  10.227 -0.0900  1.3960 -0.9348
18700SOL    HW257542   6.631   0.164  10.334 -0.1315 -0.7308  0.8313
18701SOL     OW57543   6.563   6.726   9.422 -0.4521  0.1267  0.7199
18701SOL    HW157544   6.495   6.762   9.479 -1.4415  0.3525 -0.5429
18701SOL    HW257545   6.525   6.732   9.334  0.5785 -1.2169  0.1483
18702SOL     OW57546   5.764   7.628  10.131  0.0021  0.2075  0.5332
18702SOL    HW157547   5.669   7.643  10.131 -0.0338 -0.0050  0.4128
18702SOL    HW257548   5.786   7.620  10.038 -0.0512 -0.8724  0.5905
18703SOL     OW57549   7.698   1.950   9.632 -0.0826  0.2365  0.2418
18703SOL    HW157550   7.651   1.917   9.556  0.2420 -0.2298  0.2397
18703SOL    HW257551   7.663   1.899   9.706  1.4366 -1.1952  0.0530
18704SOL     OW57552   7.111   0.830  10.394 -0.5039  0.2166 -0.4050
18704SOL    HW157553   7.105   0.911  10.445 -0.6317 -0.0011 -0.0707
18704SOL    HW257554   7.182   0.845  10.333 -0.9594  0.8412 -0.7988
18705SOL     OW57555   5.125   7.075  12.110 -0.1634 -0.3223 -0.1383
18705SOL    HW157556   5.067   7.103  12.039 -1.5425 -1.1257  0.6363
18705SOL    HW257557   5.106   7.135  12.181  1.4543  0.6878 -0.5058
18706SOL     OW57558   7.437   1.032   8.873  0.1854  0.2665 -0.0791
18706SOL    HW157559   7.466   1.023   8.964  1.9583  0.1376 -0.6207
18706SOL    HW257560   7.371   1.101   8.876  0.1052  0.1626  1.3295
18707SOL     OW57561   4.366   7.424   9.903  0.2434 -0.0104 -0.2681
18707SOL    HW157562   4.425   7.470   9.843 -0.3349 -1.4623 -2.0321
18707SOL    HW257563   4.414   7.345   9.927  0.1665  0.2071  0.6219
18708SOL     OW57564   7.511   7.929   9.689  0.2283 -0.0517 -0.0570
18708SOL    HW157565   7.570   7.865   9.649 -0.3520 -0.6259 -0.0108
18708SOL    HW257566   7.549   7.948   9.774 -0.0025 -0.9307  0.2509
18709SOL     OW57567   0.060   0.666  11.590 -0.2893  0.6136  0.5478
18709SOL    HW157568  -0.004   0.717  11.540  0.3235  1.4743  0.6095
18709SOL    HW257569   0.145   0.706  11.569  0.4359 -1.3892 -0.6336
18710SOL     OW57570   7.775   6.722   8.316  0.4845  0.7224 -0.0954
18710SOL    HW157571   7.740   6.656   8.375 -1.2891  0.6654 -1.1545
18710SOL    HW257572   7.725   6.713   8.235  1.6986  1.9086 -1.0479
18711SOL     OW57573   6.921   6.998   8.037 -0.1222  0.3022 -0.9668
18711SOL    HW157574   6.863   6.922   8.032  0.2514 -0.0456 -0.2271
18711SOL    HW257575   6.866   7.072   8.013  0.0501 -0.4123 -4.0467
18712SOL     OW57576   6.654   2.744   8.535  0.4601 -0.2241 -0.2797
18712SOL    HW157577   6.695   2.767   8.618  0.6563  1.1501 -0.7394
18712SOL    HW257578   6.564   2.775   8.543 -0.5034 -2.9262  0.5961
18713SOL     OW57579   7.141   0.856   9.238 -0.2608  0.1712  0.0414
18713SOL    HW157580   7.155   0.871   9.144  0.7247 -1.1643 -0.0469
18713SOL    HW257581   7.079   0.784   9.241  1.6927 -1.5627  0.3659
18714SOL     OW57582   6.281   1.146  12.304 -0.4682 -0.1240  0.0814
18714SOL    HW157583   6.198   1.116  12.341 -0.1588 -1.3865 -0.1913
18714SOL    HW257584   6.257   1.218  12.246 -1.4353 -0.6947 -0.2534
18715SOL     OW57585   6.255   1.184   9.583 -0.2294 -0.4199  0.0407
18715SOL    HW157586   6.183   1.246   9.593  0.4150  0.1229  1.4118
18715SOL    HW257587   6.299   1.183   9.668  0.5395 -1.8060 -0.3397
18716SOL     OW57588   7.651   7.624   9.216  0.7473 -0.0465 -0.5914
18716SOL    HW157589   7.643   7.562   9.143 -0.3632 -2.4034  1.3839
18716SOL    HW257590   7.727   7.593   9.266 -0.9481 -1.1519  1.4753
18717SOL     OW57591   7.008   7.597   8.898 -0.0125  0.0605 -0.0247
18717SOL    HW157592   6.998   7.680   8.945  1.2282 -0.4799  1.2591
18717SOL    HW257593   7.090   7.607   8.850  0.4696 -0.6245  0.6279
18718SOL     OW57594   7.516   0.424  10.066 -0.5308  0.3240 -0.4021
18718SOL    HW157595   7.482   0.419  10.155 -1.4934 -1.1523 -0.8024
18718SOL    HW257596   7.607   0.452  10.075 -0.7046  0.4575  1.0146
18719SOL     OW57597   7.295   1.824  10.182 -0.1159  0.1459 -0.2609
18719SOL    HW157598   7.303   1.914  10.213  1.8539  0.1417 -0.5888
18719SOL    HW257599   7.205   1.817  10.151 -0.2113  2.1260 -0.5800
18720SOL     OW57600   7.259   7.240  10.416 -0.6143  0.4420 -0.3544
18720SOL    HW157601   7.267   7.332  10.393 -1.1622  0.3216 -1.0895
18720SOL    HW257602   7.194   7.206  10.354 -2.3887  0.1360  1.5626
18721SOL     OW57603   7.495   0.660  10.752 -0.4257 -0.0558  0.0105
18721SOL    HW157604   7.575   0.710  10.768 -0.5420 -0.0956  0.7400
18721SOL    HW257605   7.482   0.610  10.833 -3.0731  2.5010  1.3053
18722SOL     OW57606   6.651   0.374  11.546 -0.5182 -0.4395  0.2106
18722SOL    HW157607   6.670   0.408  11.458  0.6083 -2.4717 -0.4193
18722SOL    HW257608   6.680   0.442  11.606  0.7627  0.1081 -0.9858
18723SOL     OW57609   5.528   7.778   9.056  0.1714  0.3397  0.4652
18723SOL    HW157610   5.519   7.843   9.126 -0.3367  0.8267 -0.0462
18723SOL    HW257611   5.621   7.778   9.035 -0.0051  1.8116 -0.3874
18724SOL     OW57612   6.947   0.109   9.574  0.1958  0.1064 -0.4743
18724SOL    HW157613   6.916   0.072   9.657  1.2935  0.3814  0.0955
18724SOL    HW257614   6.875   0.164   9.543 -0.9370 -1.4218 -0.6553
18725SOL     OW57615   3.756   7.441  10.020  0.2212 -0.2535 -0.3339
18725SOL    HW157616   3.839   7.398  10.040  0.4105 -0.5173 -1.6347
18725SOL    HW257617   3.768   7.477   9.933 -0.8285  0.2351 -0.2852
18726SOL     OW57618   7.797   1.987  12.468  0.4647 -0.1209  0.6526
18726SOL    HW157619   7.731   1.939  12.518 -1.0718 -0.3865 -1.4783
18726SOL    HW257620   7.760   2.075  12.457 -0.0734 -0.5405 -1.3551
18727SOL     OW57621   7.785   7.252   8.899  0.6815  0.3190  0.2881
18727SOL    HW157622   7.877   7.227   8.904  0.7704  0.2525 -1.2391
18727SOL    HW257623   7.737   7.169   8.906  0.6885  0.4181  1.7521
18728SOL     OW57624   1.205   1.039  10.858  0.2058  0.9590 -0.3622
18728SOL    HW157625   1.247   1.116  10.819  0.6829  0.9039  0.0248
18728SOL    HW257626   1.275   0.996  10.908  0.0761 -0.0238 -0.9965
18729SOL     OW57627   6.879   2.139   9.174  0.2572  0.3604  0.1354
18729SOL    HW157628   6.830   2.058   9.188  0.3276  0.1080 -0.9874
18729SOL    HW257629   6.943   2.117   9.106 -1.2115  1.9188 -1.8898
18730SOL     OW57630   5.622   0.985   9.832  0.4024 -0.2757  0.3366
18730SOL    HW157631   5.663   0.965   9.748  3.5128  0.3335  1.5312
18730SOL    HW257632   5.630   0.904   9.882  0.8433  0.0488  0.8095
18731SOL     OW57633   5.754   0.880   8.641  0.0045  0.0190  0.6152
18731SOL    HW157634   5.779   0.789   8.659 -0.3015 -0.0917  0.4856
18731SOL    HW257635   5.742   0.919   8.728 -0.9508 -0.3700  0.6675
18732SOL     OW57636   6.109   2.246  11.109  0.1370  0.5056 -0.7454
18732SOL    HW157637   6.153   2.315  11.160 -1.2037  0.9802 -0.2026
18732SOL    HW257638   6.070   2.189  11.175 -2.1038  1.4345 -1.2040
18733SOL     OW57639   5.624   1.914  10.476  0.0145  0.1888 -0.0804
18733SOL    HW157640   5.531   1.897  10.461 -0.0936  0.6598  0.0434
18733SOL    HW257641   5.641   1.997  10.432  0.5555 -0.2657 -0.7490
18734SOL     OW57642   7.737   1.593   9.961 -0.6047 -0.1283 -0.0984
18734SOL    HW157643   7.692   1.676   9.974  1.5201  1.3703 -1.6963
18734SOL    HW257644   7.797   1.587  10.034  0.1354  0.4044 -0.6496
18735SOL     OW57645   7.180   1.749   8.034  0.2045  0.4472 -0.1937
18735SOL    HW157646   7.110   1.696   7.997  1.4318 -1.2121 -0.3060
18735SOL    HW257647   7.178   1.730   8.128  1.9432 -1.5831 -0.4740
18736SOL     OW57648   6.383   0.776   8.855 -0.3580  0.1430  0.1247
18736SOL    HW157649   6.313   0.727   8.812  0.0786  0.5287 -1.0759
18736SOL    HW257650   6.455   0.774   8.792  0.1526  1.1070  0.6624
18737SOL     OW57651   5.590   7.977  10.315  0.2633 -0.0754 -0.3728
18737SOL    HW157652   5.590   7.882  10.304  2.0960 -0.3393  1.2379
18737SOL    HW257653   5.682   8.002  10.307 -0.4659  2.0767 -3.9554
18738SOL     OW57654   5.669   1.414   7.733 -0.1644  0.5641  0.0839
18738SOL    HW157655   5.600   1.449   7.677  0.3592  0.1970 -0.8221
18738SOL    HW257656   5.647   1.444   7.821 -1.6231  0.2045 -0.1408
18739SOL     OW57657   4.607   7.548   9.762 -0.3327 -0.3130  0.3104
18739SOL    HW157658   4.673   7.612   9.789  0.2975 -0.8673  0.1182
18739SOL    HW257659   4.563   7.589   9.688 -1.5499  0.8982  1.6341
18740SOL     OW57660   6.838   1.469   9.043  0.4081  0.1920  0.0047
18740SOL    HW157661   6.926   1.452   9.009 -0.3681 -1.7919 -1.2207
18740SOL    HW257662   6.820   1.559   9.018  1.2698 -0.0758 -1.7812
18741SOL     OW57663   5.387   2.873  10.723 -0.3692  0.2619 -0.0792
18741SOL    HW157664   5.458   2.904  10.667 -0.4435 -0.8345 -0.8166
18741SOL    HW257665   5.419   2.883  10.812  0.4822  0.3059 -0.3875
18742SOL     OW57666   6.760   7.436   9.166 -0.5325  0.0252 -0.0065
18742SOL    HW157667   6.760   7.515   9.220  0.1724  0.2100 -0.2698
18742SOL    HW257668   6.712   7.372   9.218 -0.2396  0.3281  0.6476
18743SOL     OW57669   7.232   2.303   9.514 -0.1976  0.6612  0.1862
18743SOL    HW157670   7.198   2.263   9.594 -0.3009  1.4960  0.5619
18743SOL    HW257671   7.159   2.299   9.452 -0.5976  1.3415  0.6028
18744SOL     OW57672   5.538   0.548   9.270 -0.1865 -0.1459  0.3938
18744SOL    HW157673   5.557   0.456   9.255 -1.0021 -0.4777  1.2759
18744SOL    HW257674   5.602   0.576   9.335 -1.1406 -0.6179  1.5629
18745SOL     OW57675   7.560   0.926  11.447 -0.0495 -0.4158 -0.5731
18745SOL    HW157676   7.627   0.980  11.489 -0.0968 -0.8864  0.1056
18745SOL    HW257677   7.552   0.963  11.359  0.9909 -0.2645 -0.6126
18746SOL     OW57678   5.799   0.004  10.110 -0.1211  0.0548  0.4457
18746SOL    HW157679   5.879   0.056  10.101 -1.3700  1.8071 -1.3286
18746SOL    HW257680   5.783  -0.031  10.023 -1.8149  0.6339  0.4754
18747SOL     OW57681   5.473   0.441  10.121 -0.2519  0.6757 -0.3454
18747SOL    HW157682   5.538   0.422  10.189 -1.3372 -1.3963  0.1999
18747SOL    HW257683   5.518   0.419  10.039 -0.3993 -1.3609  0.0666
18748SOL     OW57684   7.466   1.008   9.530  0.1109 -0.4629 -0.0087
18748SOL    HW157685   7.483   1.064   9.605  0.3914  1.7822 -1.6345
18748SOL    HW257686   7.376   0.977   9.542 -0.3230  0.9527  0.6339
18749SOL     OW57687   0.257   1.603  10.794 -0.2159 -0.1303  0.1074
18749SOL    HW157688   0.203   1.578  10.719 -0.7765 -0.6813  0.6744
18749SOL    HW257689   0.209   1.676  10.835 -0.6942 -0.7943  0.7656
18750SOL     OW57690   6.555   1.449   9.166 -0.1258 -0.2231 -0.7354
18750SOL    HW157691   6.516   1.372   9.125 -0.1603 -0.8456  0.4155
18750SOL    HW257692   6.638   1.461   9.120  0.3758 -1.5989 -0.2446
18751SOL     OW57693   7.444   7.333  10.047 -0.6815 -0.2733 -0.5103
18751SOL    HW157694   7.360   7.349  10.003 -0.6779  0.4207 -0.2741
18751SOL    HW257695   7.449   7.238  10.055  0.4008 -0.7042 -4.1913
18752SOL     OW57696   6.927   6.855  10.339 -0.7053  0.1670 -0.1048
18752SOL    HW157697   6.945   6.877  10.430 -1.2374  0.5091 -0.0752
18752SOL    HW257698   7.014   6.846  10.298 -0.4556  1.5098  0.0860
18753SOL     OW57699   6.926   0.195   9.038 -0.1369  0.9997  0.3776
18753SOL    HW157700   6.867   0.248   8.985 -1.9951 -1.5035 -0.2009
18753SOL    HW257701   6.912   0.226   9.128 -0.9430  1.6743  0.0353
18754SOL     OW57702   7.603   0.554   8.413  0.0530  0.4600 -0.0217
18754SOL    HW157703   7.627   0.462   8.424  0.6982  0.5578 -0.5931
18754SOL    HW257704   7.528   0.553   8.354  0.6889  0.3544 -0.8462
18755SOL     OW57705   6.172   0.740   9.717 -0.1581 -0.9654 -0.0178
18755SOL    HW157706   6.108   0.776   9.778  1.0838  0.9664  0.2208
18755SOL    HW257707   6.238   0.699   9.773 -0.3891 -1.6152 -0.2073
18756SOL     OW57708   6.346   1.192   9.821 -0.2013  0.1865 -0.2754
18756SOL    HW157709   6.367   1.266   9.878  0.9901  0.0781 -0.5437
18756SOL    HW257710   6.332   1.119   9.880 -1.0837  0.5355 -0.0256
18757SOL     OW57711   6.774   1.756   8.897  0.1953  0.1131 -0.1802
18757SOL    HW157712   6.805   1.815   8.966  1.9453 -1.4112  0.4480
18757SOL    HW257713   6.685   1.733   8.923  1.1255 -1.1738  2.1855
18758SOL     OW57714   6.273   0.287   9.542 -0.4455  0.0241  0.6940
18758SOL    HW157715   6.328   0.364   9.552  0.3123 -0.3239 -0.5885
18758SOL    HW257716   6.183   0.321   9.542 -0.2958  0.6018  2.7719
18759SOL     OW57717   7.551   1.259  10.793 -0.4912 -0.2102 -0.0404
18759SOL    HW157718   7.601   1.340  10.800 -0.1200 -0.1139 -2.8113
18759SOL    HW257719   7.463   1.283  10.821 -0.6267  1.4633 -1.6641
18760SOL     OW57720   5.579   0.037   9.763  0.0396  0.0416 -0.0241
18760SOL    HW157721   5.554   0.050   9.854  0.7285 -1.1516  0.3536
18760SOL    HW257722   5.505   0.069   9.713 -0.9891 -0.6951  0.9900
18761SOL     OW57723   6.856   7.913   9.779 -0.4971  0.1324 -0.1105
18761SOL    HW157724   6.912   7.848   9.820  0.0195  0.5191 -0.1950
18761SOL    HW257725   6.809   7.864   9.711  1.4057  0.2079 -1.5999
18762SOL     OW57726   5.866   5.671   9.571 -0.1988  0.6355 -0.0460
18762SOL    HW157727   5.821   5.635   9.647  2.8871 -2.1792  0.7244
18762SOL    HW257728   5.956   5.687   9.602  1.2815 -0.9322 -3.0230
18763SOL     OW57729   7.968   1.555  10.877  0.1709  0.3049  0.6760
18763SOL    HW157730   8.041   1.497  10.902 -0.4173 -1.3514 -1.2326
18763SOL    HW257731   8.001   1.643  10.895  1.8669 -0.5008  1.7922
18764SOL     OW57732   7.317   1.570   7.846  0.0813  0.2386 -0.4178
18764SOL    HW157733   7.283   1.634   7.909 -0.2690  0.3558 -0.7169
18764SOL    HW257734   7.406   1.600   7.827  0.4260 -0.1721  0.5089
18765SOL     OW57735   0.200   7.981   8.047  0.4468  0.1120  0.4256
18765SOL    HW157736   0.144   8.047   8.007  0.0309 -1.1096 -1.1098
18765SOL    HW257737   0.140   7.909   8.067  1.1156 -0.3418  0.8072
18766SOL     OW57738   6.448   7.889   9.489  0.2209 -0.1385 -0.0574
18766SOL    HW157739   6.381   7.863   9.427  0.8917  0.3906 -1.0293
18766SOL    HW257740   6.427   7.840   9.569 -1.0055 -0.3680 -0.4965
18767SOL     OW57741   7.462   0.098  10.156  0.1411 -0.2776  0.2951
18767SOL    HW157742   7.512   0.130  10.231 -0.5661 -0.7417  0.9869
18767SOL    HW257743   7.372   0.123  10.175  0.2884  2.5580 -1.9797
18768SOL     OW57744   7.239   7.837   9.321 -0.5807 -0.2322  0.0544
18768SOL    HW157745   7.234   7.905   9.388 -1.2399  0.2126 -0.4419
18768SOL    HW257746   7.309   7.778   9.352  0.1126  0.7520  0.4025
18769SOL     OW57747   5.381   0.288   9.490  0.3886  0.3406 -0.3790
18769SOL    HW157748   5.332   0.301   9.408  0.7664  0.5642 -0.5713
18769SOL    HW257749   5.473   0.292   9.464  0.5270 -1.2524 -0.1969
18770SOL     OW57750   6.812   3.178  10.890  0.1972  0.2424 -0.0175
18770SOL    HW157751   6.825   3.100  10.944 -0.4558 -0.6594 -1.1199
18770SOL    HW257752   6.844   3.250  10.944  1.3800 -0.8482  0.7977
18771SOL     OW57753   7.555   6.572  11.905  0.7214  0.2253  0.4284
18771SOL    HW157754   7.537   6.507  11.972 -0.0996  0.5710  0.5499
18771SOL    HW257755   7.649   6.563  11.887  0.4231 -1.7898 -0.3852
18772SOL     OW57756   6.800   0.554  11.684 -0.5873  0.2397  0.3355
18772SOL    HW157757   6.863   0.520  11.747 -1.6379  0.5390  1.5835
18772SOL    HW257758   6.771   0.637  11.721 -0.5202  0.9047 -1.0375
18773SOL     OW57759   5.005   0.999  10.309 -0.0935  0.1137 -0.0423
18773SOL    HW157760   5.098   1.022  10.310  0.0052 -0.2538  1.7725
18773SOL    HW257761   4.977   1.019  10.220  1.6743  0.4092 -0.5755
18774SOL     OW57762   6.899   7.512  10.986 -0.0210 -0.3404  0.0723
18774SOL    HW157763   6.817   7.550  10.955  0.8892  0.7941 -1.0707
18774SOL    HW257764   6.942   7.583  11.034  1.2979 -0.1485 -1.3155
18775SOL     OW57765   5.783   7.488   9.415 -0.3538 -0.1575 -0.5040
18775SOL    HW157766   5.712   7.498   9.478 -0.7689 -0.3962 -0.9272
18775SOL    HW257767   5.849   7.437   9.461 -1.0287 -1.0957 -0.5554
18776SOL     OW57768   5.284   6.754  11.481 -0.2121 -0.1044 -0.1015
18776SOL    HW157769   5.229   6.690  11.436 -0.5611  0.5283 -0.5865
18776SOL    HW257770   5.349   6.781  11.416 -1.1368  1.3253 -0.4896
18777SOL     OW57771   6.701   0.312   8.937  0.4399  0.6563  0.0099
18777SOL    HW157772   6.680   0.405   8.931  0.0140  0.5539 -0.1135
18777SOL    HW257773   6.631   0.275   8.991  0.8785  0.4934  0.4728
18778SOL     OW57774   6.208   7.993   8.229 -0.5220  0.0684  0.3786
18778SOL    HW157775   6.125   8.003   8.182 -0.7086 -0.6318  0.5478
18778SOL    HW257776   6.188   8.023   8.318 -0.5555  0.0310  0.3839
18779SOL     OW57777   7.150   7.201   8.735  0.3444  0.0311  0.1439
18779SOL    HW157778   7.060   7.184   8.762  0.2174  0.0384 -0.2638
18779SOL    HW257779   7.153   7.295   8.719  0.3352 -0.0163 -0.1492
18780SOL     OW57780   6.086   0.906  10.115  0.0216  0.3295  0.1181
18780SOL    HW157781   6.078   0.951  10.200 -0.3031  2.1102 -0.8031
18780SOL    HW257782   6.074   0.976  10.050 -0.3193 -1.0901 -1.4053
18781SOL     OW57783   6.335   2.031  10.372 -0.4321 -0.2709  0.1838
18781SOL    HW157784   6.272   2.103  10.365  1.8808  1.8809  0.0307
18781SOL    HW257785   6.318   1.992  10.458 -1.5934  0.5825  0.3676
18782SOL     OW57786   5.554   1.380   9.044 -0.0347 -0.4646 -0.5346
18782SOL    HW157787   5.530   1.360   8.953 -0.4122 -0.9579 -0.3302
18782SOL    HW257788   5.513   1.464   9.062  2.2339  0.9747 -1.6637
18783SOL     OW57789   6.671   2.547   9.085 -0.5241  0.5906 -0.0825
18783SOL    HW157790   6.716   2.479   9.035  1.3829  1.4977  0.3199
18783SOL    HW257791   6.597   2.501   9.125  0.9846 -1.3878  0.6071
18784SOL     OW57792   6.510   1.390  10.346 -0.2711  0.1116  0.2073
18784SOL    HW157793   6.488   1.446  10.272  1.5099 -0.6468 -0.9761
18784SOL    HW257794   6.579   1.439  10.393 -0.5659  0.0655  0.6972
18785SOL     OW57795   7.032   1.080   9.738 -0.2884  0.4279 -0.1570
18785SOL    HW157796   7.092   1.097   9.811 -0.4395  3.1774 -0.5725
18785SOL    HW257797   7.087   1.085   9.660 -0.6505  0.6159 -0.4036
18786SOL     OW57798   6.694   7.677  10.988 -0.0329 -0.1291 -0.3155
18786SOL    HW157799   6.651   7.660  10.904  0.0407  1.1688 -0.6420
18786SOL    HW257800   6.672   7.768  11.008  1.9660  0.3723 -0.1518
18787SOL     OW57801   6.448   0.379  11.910 -0.0044 -0.5533 -0.4070
18787SOL    HW157802   6.491   0.399  11.827  0.1877 -0.0843 -0.1995
18787SOL    HW257803   6.518   0.347  11.967  0.3933  1.5454  0.3867
18788SOL     OW57804   6.285   1.149  10.500  0.0183  0.0044  0.1894
18788SOL    HW157805   6.372   1.170  10.467 -0.4176  0.1963 -0.8608
18788SOL    HW257806   6.295   1.152  10.595  1.3325 -0.6910  0.1028
18789SOL     OW57807   5.186   7.894   9.884  1.2119 -0.2707  0.4444
18789SOL    HW157808   5.267   7.885   9.834  0.6934  1.7394 -0.8799
18789SOL    HW257809   5.132   7.953   9.832 -1.2040 -1.6666  1.2114
18790SOL     OW57810   6.276   0.886  11.229 -0.0963  0.9146 -0.0017
18790SOL    HW157811   6.313   0.838  11.155 -0.2326 -0.8435  1.0125
18790SOL    HW257812   6.204   0.832  11.259  0.8162  0.8482  2.2681
18791SOL     OW57813   0.242   1.673   9.344 -0.2624 -0.1370 -0.2096
18791SOL    HW157814   0.278   1.762   9.343 -0.4649 -0.0270  0.9626
18791SOL    HW257815   0.157   1.680   9.302 -1.6331  0.8713  2.4995
18792SOL     OW57816   6.755   0.314   9.260 -0.4493  0.2073  0.1937
18792SOL    HW157817   6.702   0.393   9.263  0.1601  0.6084  0.5905
18792SOL    HW257818   6.693   0.242   9.274 -0.8899  0.6608  0.5813
18793SOL     OW57819   3.693   7.195   9.073  0.4337  0.2903 -0.2818
18793SOL    HW157820   3.642   7.135   9.128  0.4343 -0.3391 -0.9438
18793SOL    HW257821   3.696   7.277   9.123 -0.4727  0.0663  0.1647
18794SOL     OW57822   7.401   0.756  11.063  0.4750  0.1550  0.1056
18794SOL    HW157823   7.335   0.738  11.130 -0.2412  0.1163 -0.5958
18794SOL    HW257824   7.442   0.671  11.047 -0.3920 -0.1547 -0.5722
18795SOL     OW57825   7.591   7.895   9.149  0.0579 -0.1755  0.1749
18795SOL    HW157826   7.516   7.934   9.194  0.1426  0.8113 -0.4927
18795SOL    HW257827   7.607   7.812   9.195 -0.3587  0.4057  1.4222
18796SOL     OW57828   7.707   0.113  11.319 -0.1109 -0.2715 -0.5775
18796SOL    HW157829   7.768   0.104  11.392 -0.3165 -2.4201 -0.6168
18796SOL    HW257830   7.620   0.102  11.358 -0.3243  0.0733 -0.9355
18797SOL     OW57831   4.837   4.814   9.819 -0.2183  0.0056  0.3329
18797SOL    HW157832   4.769   4.850   9.876 -1.6167  0.0441 -1.2861
18797SOL    HW257833   4.805   4.727   9.795 -0.5771  0.6974 -1.8292
18798SOL     OW57834   7.943   1.552   8.843 -0.2731 -0.2448 -0.0149
18798SOL    HW157835   7.975   1.620   8.784  1.4910 -0.6170  0.4499
18798SOL    HW257836   7.943   1.472   8.790 -1.4528 -0.0960 -0.2888
18799SOL     OW57837   7.848   0.978  10.331  0.2361  0.6195 -0.1209
18799SOL    HW157838   7.777   1.037  10.352  0.5858  1.3663 -0.9614
18799SOL    HW257839   7.809   0.914  10.272 -0.3387 -0.5026  1.4129
18800SOL     OW57840   7.261   0.348  11.888 -0.2708  0.2298  0.4315
18800SOL    HW157841   7.177   0.348  11.843  0.1185  1.2916 -0.3359
18800SOL    HW257842   7.317   0.292  11.833 -0.0409  0.8138  0.0621
18801SOL     OW57843   4.872   0.107  11.851  0.7600 -0.2823 -0.5313
18801SOL    HW157844   4.812   0.181  11.857  0.9348 -0.1793  0.0049
18801SOL    HW257845   4.883   0.092  11.758  1.0515  0.6354 -0.6532
18802SOL     OW57846   6.852   0.862  10.740 -0.2011  0.3290 -0.6419
18802SOL    HW157847   6.810   0.945  10.762  1.9504  0.8473  2.1258
18802SOL    HW257848   6.942   0.872  10.771  0.7468 -2.2945 -2.2149
18803SOL     OW57849   7.029   0.273   8.741  0.4599 -0.1206  0.2764
18803SOL    HW157850   6.996   0.343   8.797  0.3504  0.4121 -0.4311
18803SOL    HW257851   7.113   0.249   8.779  1.8825  2.3851 -1.0396
18804SOL     OW57852   4.363   1.279   9.124  0.3213  0.2684 -0.4295
18804SOL    HW157853   4.363   1.352   9.062  2.7976  0.4981 -0.2846
18804SOL    HW257854   4.415   1.211   9.080 -2.0926 -1.5447 -0.6414
18805SOL     OW57855   5.453   0.036   8.850 -0.2655  0.0856 -0.5007
18805SOL    HW157856   5.412  -0.046   8.826  0.8593 -0.7307  0.2738
18805SOL    HW257857   5.397   0.072   8.919 -0.7594 -0.0318 -0.8405
18806SOL     OW57858   5.573   7.063   9.848  0.0702 -0.1821 -0.6853
18806SOL    HW157859   5.612   7.093   9.766  3.1121 -4.1899 -0.9589
18806SOL    HW257860   5.641   7.075   9.913 -1.6666  1.1991  1.0062
18807SOL     OW57861   7.899   1.189  10.141  0.4196  0.6257 -0.1291
18807SOL    HW157862   7.883   1.118  10.203  2.1552 -0.2234 -0.5667
18807SOL    HW257863   7.865   1.156  10.058 -3.1898  2.3137  0.4832
18808SOL     OW57864   7.372   0.541  11.616  0.4275  0.2755  0.5526
18808SOL    HW157865   7.440   0.485  11.655  0.7042 -0.3739 -0.8282
18808SOL    HW257866   7.405   0.630  11.629  1.0488  0.0176  0.8029
18809SOL     OW57867   6.077   7.380   7.485 -0.4472  0.3542 -0.1122
18809SOL    HW157868   6.004   7.345   7.536 -1.2561  1.5691 -0.3794
18809SOL    HW257869   6.155   7.349   7.530 -1.0830 -2.0649 -0.5527
18810SOL     OW57870   5.364   1.177  10.492  0.0411 -0.5069  0.0268
18810SOL    HW157871   5.386   1.106  10.433  0.0554 -0.0056 -0.5773
18810SOL    HW257872   5.276   1.204  10.466  0.7593  0.9623 -1.0355
18811SOL     OW57873   6.470   0.744   0.537 -0.2198 -0.3645  0.4327
18811SOL    HW157874   6.507   0.757   0.450  0.5869 -0.8071  0.7047
18811SOL    HW257875   6.533   0.784   0.596 -0.8282  0.0460  0.8114
18812SOL     OW57876   6.404   0.163  11.201 -0.3411 -0.0063  0.3988
18812SOL    HW157877   6.335   0.125  11.255 -1.1538 -0.0592 -0.6483
18812SOL    HW257878   6.376   0.147  11.111  1.4251 -0.7326 -0.0696
18813SOL     OW57879   5.957   7.451   8.505  0.0345 -0.2122 -0.3466
18813SOL    HW157880   6.030   7.494   8.550  1.5940 -3.5421  0.6270
18813SOL    HW257881   5.992   7.428   8.419 -0.6810  0.1317 -0.7433
18814SOL     OW57882   5.361   7.193  10.412  0.0035  0.3190  0.6138
18814SOL    HW157883   5.406   7.150  10.485 -0.2022 -0.7886  0.1130
18814SOL    HW257884   5.347   7.122  10.348 -0.2670  1.1613 -0.2794
18815SOL     OW57885   0.097   7.967  12.100  0.2350 -0.8773 -0.2293
18815SOL    HW157886   0.137   8.035  12.153  0.8142  0.8960 -2.7718
18815SOL    HW257887   0.159   7.894  12.104  0.4331 -0.6652  1.1569
18816SOL     OW57888   7.183   1.503  10.688 -0.1890 -0.2743 -0.2317
18816SOL    HW157889   7.219   1.572  10.744  0.6248  0.3219 -1.4565
18816SOL    HW257890   7.097   1.485  10.725  0.1577  0.3954  0.9606
18817SOL     OW57891   7.256   7.453  10.861  0.1732  0.3992 -0.7782
18817SOL    HW157892   7.332   7.447  10.919  0.3164  3.2906 -0.5072
18817SOL    HW257893   7.278   7.397  10.786 -0.1531 -3.7106  1.9338
18818SOL     OW57894   7.589   1.677  10.571  0.1774  0.0218  0.4513
18818SOL    HW157895   7.649   1.750  10.557  0.3086  0.0230  1.0006
18818SOL    HW257896   7.509   1.702  10.526  0.4715  0.1768  0.0095
18819SOL     OW57897   5.893   0.934  11.881 -0.0968  0.5190  0.1403
18819SOL    HW157898   5.822   0.976  11.831 -0.8315 -0.1586  0.5872
18819SOL    HW257899   5.875   0.840  11.873  0.5899  0.3526  0.5140
18820SOL     OW57900   4.639   0.762  10.336  0.2486  0.4532  0.4350
18820SOL    HW157901   4.647   0.825  10.265 -0.5023 -0.1035 -0.1587
18820SOL    HW257902   4.556   0.783  10.378  1.2615  1.5865  1.9768
18821SOL     OW57903   5.803   1.296   9.756  0.3545  0.0620  0.3331
18821SOL    HW157904   5.812   1.344   9.673  0.8873 -0.8237 -0.1329
18821SOL    HW257905   5.747   1.222   9.734  0.2638 -0.0209  0.8396
18822SOL     OW57906   5.777   1.032  10.624 -0.1863  0.1630 -0.0317
18822SOL    HW157907   5.682   1.036  10.617 -0.2847 -0.6297  0.6753
18822SOL    HW257908   5.805   0.989  10.543 -0.5742 -0.9671  0.4089
18823SOL     OW57909   7.683   2.334  10.890  0.1859 -0.6971 -0.3406
18823SOL    HW157910   7.667   2.394  10.817  0.0223 -0.1415  0.1427
18823SOL    HW257911   7.634   2.255  10.868  0.0521 -0.4945 -0.7796
18824SOL     OW57912   6.779   0.471   8.424  0.1168 -0.2081  0.6071
18824SOL    HW157913   6.837   0.495   8.351 -0.2189  0.5078  0.5654
18824SOL    HW257914   6.812   0.386   8.454  0.0328 -0.6876 -0.6103
18825SOL     OW57915   4.623   2.349  10.030  0.5688  0.2797  0.2634
18825SOL    HW157916   4.533   2.322  10.014 -0.1225  2.5659 -0.0499
18825SOL    HW257917   4.643   2.316  10.118  0.2228 -2.0794 -0.4708
18826SOL     OW57918   6.497   0.479  10.805 -0.1751  0.3634 -0.2796
18826SOL    HW157919   6.549   0.558  10.818 -0.8606  0.8337 -0.3574
18826SOL    HW257920   6.471   0.482  10.713 -0.5899  0.2853 -0.1669
18827SOL     OW57921   4.530   0.303  10.806 -0.5754  0.0174 -0.1847
18827SOL    HW157922   4.506   0.385  10.763  1.3371  1.8152  1.9334
18827SOL    HW257923   4.517   0.320  10.899 -0.5267 -2.2703  0.2968
18828SOL     OW57924   6.670   2.233  11.695 -0.1526  0.3840  0.0461
18828SOL    HW157925   6.698   2.311  11.646  2.1342 -0.0985  0.4577
18828SOL    HW257926   6.674   2.260  11.787 -0.5296  0.1129  0.1428
18829SOL     OW57927   7.105   1.172   9.121  0.0651  0.6401  0.0166
18829SOL    HW157928   7.162   1.169   9.045 -0.2572 -2.1467 -0.2301
18829SOL    HW257929   7.017   1.184   9.085 -0.0832 -0.6450 -0.1122
18830SOL     OW57930   7.335   0.825   9.932  0.0406  0.3467  0.7736
18830SOL    HW157931   7.396   0.897   9.946  1.1044 -0.6781  1.4915
18830SOL    HW257932   7.386   0.758   9.887 -0.9593  0.0569  0.0366
18831SOL     OW57933   5.943   1.146  11.612  0.2506  0.2046 -0.3155
18831SOL    HW157934   5.939   1.240  11.597  0.5935  0.0281 -1.5402
18831SOL    HW257935   5.865   1.127  11.665 -0.0882  1.0947 -0.4874
18832SOL     OW57936   7.972   2.118   7.813 -0.0488  0.1870  0.8034
18832SOL    HW157937   8.050   2.114   7.758 -0.7148 -1.8825 -0.0823
18832SOL    HW257938   7.907   2.163   7.759 -0.7863 -2.0875 -0.3108
18833SOL     OW57939   5.175   0.860  10.038  0.0984 -0.1917 -0.0679
18833SOL    HW157940   5.232   0.886   9.966 -0.2166 -1.0024 -0.6213
18833SOL    HW257941   5.087   0.863  10.002 -0.1760  0.5290  0.6281
18834SOL     OW57942   6.585   0.511   9.188 -0.5656 -0.2814 -0.4108
18834SOL    HW157943   6.658   0.505   9.127 -1.6174 -0.8256 -1.6490
18834SOL    HW257944   6.618   0.566   9.259  1.5798 -1.7684 -0.1496
18835SOL     OW57945   0.885   2.685   9.774 -0.2125  0.0874 -0.2056
18835SOL    HW157946   0.839   2.687   9.858 -3.5653 -3.5687 -1.6679
18835SOL    HW257947   0.845   2.755   9.723 -0.4468  0.2594  0.2094
18836SOL     OW57948   7.656   6.533   7.842 -0.0011 -0.5592  0.0741
18836SOL    HW157949   7.588   6.477   7.804  2.5447 -2.2899 -2.2971
18836SOL    HW257950   7.655   6.612   7.789  0.0103 -0.7013 -0.1388
18837SOL     OW57951   6.833   0.458   9.665 -0.4514 -0.2008  0.3234
18837SOL    HW157952   6.813   0.400   9.739 -1.7191 -0.1703  0.0294
18837SOL    HW257953   6.775   0.428   9.595  0.3814  0.0914 -0.5026
18838SOL     OW57954   6.502   2.394   9.586 -0.5812 -0.4773  0.6091
18838SOL    HW157955   6.577   2.436   9.628 -0.2326 -0.8801  0.3971
18838SOL    HW257956   6.540   2.324   9.533 -0.7137  1.5367 -2.4556
18839SOL     OW57957   6.735   1.548  10.459 -0.0013  0.0844  0.6047
18839SOL    HW157958   6.728   1.505  10.544 -0.3026  0.8549  0.9751
18839SOL    HW257959   6.826   1.576  10.453 -0.0961  0.4569  0.8854
18840SOL     OW57960   0.875   1.894   8.860  0.3520 -0.5199  0.1276
18840SOL    HW157961   0.964   1.920   8.838  0.7525 -1.0640  1.0172
18840SOL    HW257962   0.885   1.840   8.939 -0.5594 -2.1471 -0.8147
18841SOL     OW57963   7.160   2.447   8.980  0.1997  0.6631 -0.0342
18841SOL    HW157964   7.247   2.443   8.941  0.0148  1.2151 -0.5153
18841SOL    HW257965   7.106   2.389   8.926  0.2509  0.3686  0.2266
18842SOL     OW57966   6.184   0.220   9.852  0.0540 -0.2092 -0.2300
18842SOL    HW157967   6.129   0.177   9.917 -1.8990 -1.0715 -2.2951
18842SOL    HW257968   6.160   0.312   9.857  0.4218 -0.1648  0.7265
18843SOL     OW57969   6.977   2.552   9.433  0.4149  0.6321  0.3014
18843SOL    HW157970   7.020   2.470   9.408  0.6114  0.0141  2.5186
18843SOL    HW257971   7.044   2.599   9.483 -0.0750  1.6805  0.0036
18844SOL     OW57972   7.398   7.029   8.801 -0.0954 -0.0231 -0.1404
18844SOL    HW157973   7.397   7.051   8.894  1.6251  1.8810 -0.5014
18844SOL    HW257974   7.469   6.966   8.792  0.5057  0.6693 -0.3123
18845SOL     OW57975   7.611   6.891  10.533  0.0096  0.4116  0.2944
18845SOL    HW157976   7.668   6.950  10.484  0.3375 -0.8500 -0.8897
18845SOL    HW257977   7.522   6.920  10.511  0.1306 -0.5302 -1.6276
18846SOL     OW57978   5.620   2.142  10.963 -0.0103 -0.0418 -0.2500
18846SOL    HW157979   5.693   2.082  10.981  0.5907  0.6309 -0.3924
18846SOL    HW257980   5.652   2.198  10.893 -0.2360  1.0052  0.4617
18847SOL     OW57981   7.459   0.427  10.332 -0.1797  0.3295  0.4795
18847SOL    HW157982   7.369   0.411  10.362 -0.6495  0.1564 -0.9354
18847SOL    HW257983   7.494   0.490  10.395 -1.0627 -0.1134  1.4441
18848SOL     OW57984   1.120   1.977   9.166  0.0822  0.0740 -0.1815
18848SOL    HW157985   1.194   2.033   9.190 -0.6257  1.8276 -1.7733
18848SOL    HW257986   1.160   1.901   9.124  1.0162  0.5547 -0.1979
18849SOL     OW57987   4.885   1.233  10.550 -0.8687 -0.1411 -0.1865
18849SOL    HW157988   4.841   1.148  10.545 -1.2506  0.0071  0.5872
18849SOL    HW257989   4.846   1.276  10.627 -0.4699  0.6132 -0.3986
18850SOL     OW57990   5.403   7.836  10.659 -0.4585 -0.2719 -0.5959
18850SOL    HW157991   5.453   7.796  10.587  0.1646 -1.6634  0.5465
18850SOL    HW257992   5.408   7.930  10.642 -0.3399 -0.5574 -2.3653
18851SOL     OW57993   6.566   2.136   8.565  0.0221 -0.2765  0.2040
18851SOL    HW157994   6.560   2.084   8.484  0.4841  0.8018 -0.5357
18851SOL    HW257995   6.650   2.110   8.603  0.0976 -0.3221  0.0100
18852SOL     OW57996   7.024   0.378  11.119 -0.1081 -0.0466 -0.0342
18852SOL    HW157997   6.992   0.341  11.201  0.5418  1.5400  0.9731
18852SOL    HW257998   6.965   0.451  11.100 -0.6644 -0.8043 -1.3669
18853SOL     OW57999   6.348   1.099   7.466  0.4646 -0.0909  0.0558
18853SOL    HW158000   6.422   1.077   7.522  1.0181 -0.9414 -0.9573
18853SOL    HW258001   6.309   1.177   7.506  0.1992 -1.2255  2.1846
18854SOL     OW58002   7.063   0.085   9.994 -0.5681 -0.2370  0.2940
18854SOL    HW158003   7.124   0.109  10.063 -0.3927 -1.6167  0.6628
18854SOL    HW258004   7.100   0.005   9.955 -1.3350 -0.2239 -0.5171
18855SOL     OW58005   6.680   7.784  10.076  0.4521 -0.5238  0.5400
18855SOL    HW158006   6.637   7.765  10.160 -0.7282 -1.8728 -0.3227
18855SOL    HW258007   6.697   7.878  10.078 -2.4314  0.0661  1.0228
18856SOL     OW58008   7.444   2.019   8.980  0.3901 -0.1071 -0.4520
18856SOL    HW158009   7.380   1.995   9.047  0.4751  3.0214  0.9178
18856SOL    HW258010   7.526   1.978   9.010 -0.1775 -1.1810 -0.3071
18857SOL     OW58011   6.634   1.180   9.915  0.0950  0.5201  0.7652
18857SOL    HW158012   6.547   1.220   9.925 -0.2923 -0.2130  0.4404
18857SOL    HW258013   6.649   1.136   9.999 -0.2659 -0.1401  0.4884
18858SOL     OW58014   7.800   0.025  10.915  0.2556 -0.4092  0.1918
18858SOL    HW158015   7.780  -0.045  10.852  2.7167 -2.0253  1.0625
18858SOL    HW258016   7.819  -0.021  10.997 -1.3329  1.5552  1.7696
18859SOL     OW58017   6.989   1.726   9.827  0.7018 -0.1401 -0.1426
18859SOL    HW158018   7.023   1.642   9.796  0.4864  0.5532 -2.4692
18859SOL    HW258019   6.904   1.735   9.784  0.9444  1.4888 -0.3659
18860SOL     OW58020   6.685   0.162   9.866  0.2769  0.7675 -0.8026
18860SOL    HW158021   6.749   0.093   9.881 -0.4011  0.4316  0.6062
18860SOL    HW258022   6.727   0.241   9.900 -0.4990  0.3379  1.2631
18861SOL     OW58023   5.758   6.945  10.147  0.3041  0.1349 -0.3245
18861SOL    HW158024   5.826   6.996  10.192  0.3120  1.6412 -1.9167
18861SOL    HW258025   5.807   6.886  10.090  0.2818 -0.1377 -0.0619
18862SOL     OW58026   6.644   7.974  11.028  0.2602 -0.2321 -0.3158
18862SOL    HW158027   6.601   7.978  11.114  1.6741  0.3986  0.3852
18862SOL    HW258028   6.727   8.020  11.040  0.3985  0.0572 -2.0865
18863SOL     OW58029   7.782   0.011   9.582 -0.0682 -0.3103 -0.4267
18863SOL    HW158030   7.749   0.077   9.642  0.6400 -0.9059  0.6548
18863SOL    HW258031   7.869   0.042   9.557  0.8870 -1.4495  1.2146
18864SOL     OW58032   7.901   1.565  10.182 -0.8089  0.0988 -0.1536
18864SOL    HW158033   7.911   1.470  10.193 -0.6744 -0.0914 -1.6521
18864SOL    HW258034   7.900   1.600  10.271 -1.5702 -1.3800  0.4626
18865SOL     OW58035   6.643   1.950   9.142  0.2111  0.0442  0.2834
18865SOL    HW158036   6.581   1.877   9.138  0.2386  0.0337  0.0392
18865SOL    HW258037   6.694   1.935   9.221 -0.6819  0.5137  0.9765
18866SOL     OW58038   6.468   0.457  10.548 -0.1814  0.5096  0.1829
18866SOL    HW158039   6.417   0.479  10.471 -1.4200 -1.4717  0.3540
18866SOL    HW258040   6.535   0.397  10.516  0.2559  0.8788  0.4062
18867SOL     OW58041   6.078   1.077  11.199 -0.0431  0.2066 -0.0276
18867SOL    HW158042   6.151   1.015  11.209  2.4066  2.6960 -1.1194
18867SOL    HW258043   6.016   1.032  11.143  1.0007 -1.7299  0.2803
18868SOL     OW58044   5.694   1.181   9.992 -0.1465  0.4321  0.1222
18868SOL    HW158045   5.652   1.119   9.932  2.5089 -2.2691  0.7982
18868SOL    HW258046   5.747   1.237   9.935 -0.2667  0.1069 -0.3151
18869SOL     OW58047   7.182   1.966   9.569  0.3190 -0.2013  0.0614
18869SOL    HW158048   7.164   1.877   9.539  0.8049 -0.8078  1.4921
18869SOL    HW258049   7.127   1.976   9.647 -0.2675  1.0221 -0.4792
18870SOL     OW58050   5.305   1.452  11.404  0.6410 -0.8320  0.5259
18870SOL    HW158051   5.314   1.535  11.451 -0.4951 -1.2035  1.4441
18870SOL    HW258052   5.293   1.386  11.472 -0.3978 -1.4788 -0.2469
18871SOL     OW58053   6.603   1.554  11.137 -0.3471  0.5695 -0.2537
18871SOL    HW158054   6.690   1.588  11.111  1.2136 -3.4650 -1.0270
18871SOL    HW258055   6.589   1.589  11.225  1.8868  1.6631 -0.2553
18872SOL     OW58056   7.456   1.846  11.690 -0.3771  0.5569 -0.1693
18872SOL    HW158057   7.382   1.907  11.692 -0.8932 -0.0749  0.7950
18872SOL    HW258058   7.514   1.876  11.761  0.7312  1.5409 -1.4322
18873SOL     OW58059   0.093   7.632  10.316  0.6052 -0.0244 -0.0678
18873SOL    HW158060   0.138   7.712  10.288  0.6555 -0.4350 -1.2261
18873SOL    HW258061   0.037   7.660  10.388  1.3585  0.8530  0.1978
18874SOL     OW58062   6.396   7.021  10.151  0.3126  0.0030  0.1095
18874SOL    HW158063   6.397   7.039  10.057  0.0636  0.0965  0.1239
18874SOL    HW258064   6.433   7.099  10.191  2.4199 -0.8737 -0.0391
18875SOL     OW58065   5.550   1.132   8.872  0.3501  0.0198  0.5997
18875SOL    HW158066   5.459   1.163   8.872  0.0428 -0.8364  1.4533
18875SOL    HW258067   5.599   1.203   8.831 -0.7429  0.3767 -0.1573
18876SOL     OW58068   6.640   2.663  11.911 -0.4420  0.7696  0.3966
18876SOL    HW158069   6.597   2.696  11.990  0.4108  2.8533  0.0436
18876SOL    HW258070   6.600   2.713  11.840  0.2003  0.3178 -0.2944
18877SOL     OW58071   7.477   7.368  11.032 -0.5166  0.5806 -0.0817
18877SOL    HW158072   7.562   7.411  11.039  0.0708 -0.5727  0.2548
18877SOL    HW258073   7.443   7.367  11.121 -0.5369  0.3946 -0.0902
18878SOL     OW58074   6.667   0.300  10.461  0.1953 -0.7290 -0.5500
18878SOL    HW158075   6.670   0.254  10.545 -1.7706 -0.5606 -0.3346
18878SOL    HW258076   6.758   0.319  10.441  0.7103 -0.5568  1.6704
18879SOL     OW58077   5.668   3.203  11.101  0.3809 -0.7936  0.0862
18879SOL    HW158078   5.576   3.199  11.073  0.0642 -1.9737  1.1957
18879SOL    HW258079   5.713   3.140  11.045  0.8564  0.9142 -1.5358
18880SOL     OW58080   5.283   6.393   7.983 -0.1410  0.0546  0.4299
18880SOL    HW158081   5.320   6.306   8.000 -0.7711 -0.5092 -0.9281
18880SOL    HW258082   5.234   6.414   8.063 -0.9800 -1.3806  0.3273
18881SOL     OW58083   0.185   1.412   9.717  0.2116 -0.4084  0.4383
18881SOL    HW158084   0.098   1.378   9.738  0.1357  0.4300  1.6051
18881SOL    HW258085   0.246   1.348   9.754  0.0779 -0.3148  0.8290
18882SOL     OW58086   6.633   6.822  10.053  0.1928 -0.0027  0.8401
18882SOL    HW158087   6.703   6.758  10.064  0.0068 -0.1433  1.2036
18882SOL    HW258088   6.602   6.809   9.963  1.6321  1.0628  0.1379
18883SOL     OW58089   4.878   0.412   9.043 -0.0347  0.1424  0.2929
18883SOL    HW158090   4.795   0.442   9.007 -0.4815 -0.9707  0.3688
18883SOL    HW258091   4.941   0.481   9.020 -1.1681  1.5105  1.1559
18884SOL     OW58092   6.733   1.819  10.751 -0.3644  0.6394  0.1689
18884SOL    HW158093   6.693   1.890  10.799 -2.2267 -0.1632 -0.1228
18884SOL    HW258094   6.726   1.743  10.809  3.3318  0.9639  1.3056
18885SOL     OW58095   5.725   7.334  10.984  0.2418 -0.3301  0.2003
18885SOL    HW158096   5.655   7.270  10.972  0.0934 -0.3559  1.1151
18885SOL    HW258097   5.746   7.364  10.896  0.2000 -1.5118 -0.2367
18886SOL     OW58098   7.034   6.218  11.368 -0.5752 -0.2759 -0.0084
18886SOL    HW158099   7.111   6.263  11.336 -0.4592 -0.2030  0.3631
18886SOL    HW258100   6.975   6.287  11.397 -0.2403 -0.3540  0.9168
18887SOL     OW58101   6.930   0.748  11.295  0.3707  0.6134  0.2506
18887SOL    HW158102   6.866   0.785  11.236 -0.1908  0.0786  0.5076
18887SOL    HW258103   6.884   0.676  11.338  0.7290  1.0604  1.4184
18888SOL     OW58104   6.875   1.047   0.430  0.0070 -0.6171  0.0378
18888SOL    HW158105   6.822   1.070   0.353 -1.6482 -0.3175  1.2153
18888SOL    HW258106   6.962   1.081   0.410 -0.5958  0.2238 -1.3384
18889SOL     OW58107   6.175   2.297  12.478 -0.7841 -0.2237 -0.0952
18889SOL    HW158108   6.209   2.308  12.566 -0.1425 -1.7484 -0.1194
18889SOL    HW258109   6.090   2.254  12.490 -0.3885 -1.0609 -0.2334
18890SOL     OW58110   2.990   1.617  12.041  0.3329  0.2259  0.4293
18890SOL    HW158111   2.918   1.627  11.979  0.1005  0.7112  0.7750
18890SOL    HW258112   3.048   1.690  12.022 -0.5419  1.3564  1.8451
18891SOL     OW58113   5.735   0.741  10.808  0.0041 -0.3619  0.0220
18891SOL    HW158114   5.679   0.796  10.862 -1.5869 -0.3914 -1.5044
18891SOL    HW258115   5.717   0.652  10.838  0.1941 -0.2832  0.3744
18892SOL     OW58116   5.018   0.580  12.455  0.3890 -0.0065  0.2374
18892SOL    HW158117   4.981   0.655  12.408  0.1511 -0.7091 -0.7401
18892SOL    HW258118   5.110   0.580  12.430 -0.1091 -1.5161 -1.8928
18893SOL     OW58119   6.578   1.426  12.382  0.4570 -0.8417 -0.6395
18893SOL    HW158120   6.551   1.454  12.295 -0.1074  1.0349  0.0765
18893SOL    HW258121   6.514   1.467  12.441  2.2165 -0.0247  0.8045
18894SOL     OW58122   7.842   1.465   0.208 -0.0209 -0.0652 -0.2041
18894SOL    HW158123   7.756   1.460   0.250  0.6076 -1.4490  0.9771
18894SOL    HW258124   7.876   1.551   0.234 -0.6923  0.1517 -0.0172
18895SOL     OW58125   0.966   7.076  11.568 -0.4574 -0.0025  0.1854
18895SOL    HW158126   0.907   7.110  11.501 -1.6243 -0.3959  0.9833
18895SOL    HW258127   0.934   6.988  11.586  0.8820 -0.5410  0.0603
18896SOL     OW58128   7.518   7.831  10.760 -0.2312 -0.3079  0.1668
18896SOL    HW158129   7.498   7.924  10.751 -0.2083 -0.1527  1.5006
18896SOL    HW258130   7.587   7.815  10.695 -0.5324  0.4972 -0.3646
18897SOL     OW58131   5.466   1.088   0.536  0.2359  0.3428 -0.7072
18897SOL    HW158132   5.545   1.087   0.590  0.3207  3.0642 -0.6589
18897SOL    HW258133   5.499   1.104   0.447 -0.1056 -1.3772 -1.1783
18898SOL     OW58134   5.784   7.873   9.882  0.1115  0.0097 -0.1366
18898SOL    HW158135   5.789   7.785   9.844 -0.7650 -0.4671  0.8003
18898SOL    HW258136   5.715   7.917   9.832 -0.4649 -0.3347  0.3507
18899SOL     OW58137   4.633   0.713   1.550 -0.3793 -0.3072  0.2531
18899SOL    HW158138   4.552   0.663   1.567 -0.2741 -1.6071 -2.4495
18899SOL    HW258139   4.604   0.788   1.497  0.0839 -0.4821 -0.2613
18900SOL     OW58140   6.675   2.215  12.082 -0.2674  0.6264 -0.4502
18900SOL    HW158141   6.760   2.173  12.066 -0.4078  0.4303 -0.6888
18900SOL    HW258142   6.629   2.156  12.141  0.1237  1.1940  0.4473
18901SOL     OW58143   6.339   1.601  11.139 -0.1233 -0.3144  0.4269
18901SOL    HW158144   6.430   1.582  11.162 -0.0296  0.2330  0.5171
18901SOL    HW258145   6.289   1.531  11.181  0.3688 -1.4221 -0.7856
18902SOL     OW58146   5.414   0.614  10.384 -0.1794 -0.4968  0.4455
18902SOL    HW158147   5.453   0.674  10.448 -1.7111  0.7557  0.2487
18902SOL    HW258148   5.451   0.528  10.407  0.3009  0.1304  2.1813
18903SOL     OW58149   7.429   0.011  12.064 -0.1003  0.2867 -0.6302
18903SOL    HW158150   7.342   0.027  12.100 -0.6688 -0.7386 -1.4878
18903SOL    HW258151   7.417  -0.061  12.002  1.8928 -2.1332  1.5422
18904SOL     OW58152   5.140   7.730   0.957  0.2452 -0.0625  0.1118
18904SOL    HW158153   5.215   7.699   0.906 -0.7814  0.8882 -2.1364
18904SOL    HW258154   5.116   7.813   0.916 -1.2460  0.3006  1.6058
18905SOL     OW58155   4.137   1.194  11.945 -0.2643 -0.0257  0.2486
18905SOL    HW158156   4.090   1.244  11.878 -0.1114 -1.2302 -0.7958
18905SOL    HW258157   4.078   1.122  11.968  0.9351 -1.4607 -0.9582
18906SOL     OW58158   6.647   0.123  11.418 -0.4770 -0.5274 -0.4942
18906SOL    HW158159   6.635   0.207  11.462  0.4424 -0.4005 -0.4656
18906SOL    HW258160   6.568   0.112  11.365 -0.6846  0.2635 -0.3634
18907SOL     OW58161   5.022   0.370  10.955  0.2048  0.1836 -0.0007
18907SOL    HW158162   4.940   0.385  11.002  0.4916 -0.6498  0.7768
18907SOL    HW258163   5.080   0.440  10.986  0.0672  0.2606  0.0849
18908SOL     OW58164   0.190   0.398   0.773 -0.1586  0.1484 -0.6035
18908SOL    HW158165   0.182   0.452   0.694  0.8865  0.4237 -0.5445
18908SOL    HW258166   0.106   0.354   0.781 -0.6872  1.0147 -1.2163
18909SOL     OW58167   6.943   1.256  12.453  0.4102 -0.3192 -0.0334
18909SOL    HW158168   6.972   1.322  12.390 -1.0422  0.6801  0.2814
18909SOL    HW258169   6.869   1.214  12.411 -1.1228  0.9369  1.2727
18910SOL     OW58170   7.169   2.407  11.735  0.4168  0.1848  0.1404
18910SOL    HW158171   7.178   2.502  11.723  0.9017  0.0637 -0.5647
18910SOL    HW258172   7.127   2.397  11.820 -1.3548  1.0786 -0.5937
18911SOL     OW58173   5.070   7.413  11.802 -0.4960  0.1940  0.2287
18911SOL    HW158174   5.049   7.432  11.710  0.3355  0.1653  0.0280
18911SOL    HW258175   5.158   7.447  11.814  0.2423 -1.6571  0.4242
18912SOL     OW58176   6.967   0.313  11.775  0.2301  0.0709  0.0178
18912SOL    HW158177   6.948   0.247  11.842  3.4791 -2.0785 -0.9557
18912SOL    HW258178   6.929   0.277  11.695 -0.2507  0.7203 -0.0573
18913SOL     OW58179   0.195   0.600  11.879  0.0337 -0.1538 -0.3333
18913SOL    HW158180   0.286   0.584  11.853  0.5300  0.3666  0.9892
18913SOL    HW258181   0.193   0.692  11.904 -0.9120 -0.1118 -0.5400
18914SOL     OW58182   7.366   0.824   1.920 -0.1472 -0.3977 -0.2471
18914SOL    HW158183   7.311   0.856   1.849 -0.4340 -0.1274  0.0923
18914SOL    HW258184   7.314   0.755   1.962  0.2397 -0.9350 -0.6265
18915SOL     OW58185   6.753   7.469   8.883 -0.2079  0.1720  0.4653
18915SOL    HW158186   6.843   7.501   8.884 -0.0561 -0.2616  1.0589
18915SOL    HW258187   6.726   7.469   8.975 -0.8721  0.4614  0.2738
18916SOL     OW58188   5.449   1.908   0.605 -0.0292 -0.5847 -0.1025
18916SOL    HW158189   5.493   1.885   0.687 -0.2268  0.2939  0.2498
18916SOL    HW258190   5.500   1.981   0.569 -1.6902  1.0693  0.7661
18917SOL     OW58191   5.877   7.883  10.908 -0.3144  1.1023  0.0726
18917SOL    HW158192   5.855   7.923  10.823  1.5249  1.8657 -0.1067
18917SOL    HW258193   5.885   7.790  10.888  0.1755  1.2802 -0.6322
18918SOL     OW58194   7.935   1.282   0.875  0.0747 -0.0101  0.6262
18918SOL    HW158195   7.875   1.320   0.812  0.0037  0.7066  1.1137
18918SOL    HW258196   7.884   1.273   0.955  0.2849 -0.5047  0.7118
18919SOL     OW58197   6.409   0.115  10.532 -0.2298  0.6004 -0.3789
18919SOL    HW158198   6.474   0.103  10.601  0.9022  0.3585 -1.4466
18919SOL    HW258199   6.372   0.028  10.519  1.2355  0.1298 -1.6531
18920SOL     OW58200   0.505   1.145  11.473 -0.4829  0.0755 -0.1420
18920SOL    HW158201   0.417   1.125  11.443  0.0637 -2.4219 -0.3055
18920SOL    HW258202   0.541   1.203  11.407 -1.3548 -0.4786 -1.1284
18921SOL     OW58203   5.763   1.793   0.356  0.0044  0.4733 -0.0871
18921SOL    HW158204   5.676   1.757   0.372 -0.1601  0.9457  0.0936
18921SOL    HW258205   5.751   1.859   0.288  0.2506  0.4062 -0.1979
18922SOL     OW58206   0.029   2.079  12.297  0.0762  0.1628 -0.1393
18922SOL    HW158207   0.115   2.121  12.290 -0.6237  1.6047 -0.3210
18922SOL    HW258208  -0.007   2.111  12.380  1.0601 -3.1107  1.7414
18923SOL     OW58209   5.742   1.096  10.248  0.3665  0.6547 -0.3187
18923SOL    HW158210   5.681   1.153  10.294 -1.5584 -1.7451  0.3528
18923SOL    HW258211   5.727   1.115  10.155 -1.4927  0.1361 -0.1694
18924SOL     OW58212   7.140   7.914  12.109 -0.1816  0.1099 -0.2528
18924SOL    HW158213   7.070   7.905  12.045 -0.6192 -0.2665  0.2689
18924SOL    HW258214   7.119   7.849  12.176  0.8759 -0.2804 -0.2789
18925SOL     OW58215   5.891   1.370  11.800 -0.3144 -0.5267  0.6307
18925SOL    HW158216   5.860   1.284  11.828  1.5417 -1.3379  0.3280
18925SOL    HW258217   5.850   1.384  11.715 -1.8593 -0.3849  1.3670
18926SOL     OW58218   0.801   0.468  12.333 -0.3280  0.3826  0.0345
18926SOL    HW158219   0.794   0.381  12.374  0.8815  0.0887 -0.3427
18926SOL    HW258220   0.710   0.492  12.314 -0.7097 -0.6710  0.4100
18927SOL     OW58221   7.365   2.026  11.268  0.1796  0.6492  0.4035
18927SOL    HW158222   7.425   1.954  11.251  0.6878  0.6656  2.0001
18927SOL    HW258223   7.306   1.993  11.335 -1.4879  0.7276 -0.9387
18928SOL     OW58224   6.358   6.490  11.198  0.1672 -0.2744 -0.0048
18928SOL    HW158225   6.431   6.511  11.256 -0.2594 -0.8610  0.7544
18928SOL    HW258226   6.343   6.571  11.148 -0.2888  0.6499  1.5826
18929SOL     OW58227   5.272   0.999  12.047 -0.5159  0.4464  0.2693
18929SOL    HW158228   5.241   1.062  12.113 -0.8774  2.5406 -1.7655
18929SOL    HW258229   5.197   0.985  11.990 -0.0422 -0.8845 -0.0647
18930SOL     OW58230   0.332   0.415   1.018  0.1753 -0.2294  0.3940
18930SOL    HW158231   0.273   0.447   1.087 -0.4011  1.6612 -0.9030
18930SOL    HW258232   0.278   0.413   0.939  1.1572 -1.1502 -0.2838
18931SOL     OW58233   7.284   7.044   0.369 -0.2394  0.0458 -0.1046
18931SOL    HW158234   7.286   6.966   0.313 -1.8947 -0.1433  0.0686
18931SOL    HW258235   7.364   7.091   0.346  1.3792 -2.1987  0.5231
18932SOL     OW58236   7.166   1.251  11.685 -0.3418  0.0161  0.0767
18932SOL    HW158237   7.092   1.226  11.741 -0.4604 -0.5776 -0.3379
18932SOL    HW258238   7.209   1.322  11.733 -0.8450 -0.0177  0.5940
18933SOL     OW58239   6.632   1.959  11.597 -0.0445  0.3951  0.6919
18933SOL    HW158240   6.661   2.051  11.598 -0.3757  0.4980  1.0846
18933SOL    HW258241   6.559   1.957  11.659 -0.4339 -0.0063  0.2272
18934SOL     OW58242   6.022   7.269  10.879  0.4376 -0.1602  0.1054
18934SOL    HW158243   5.955   7.231  10.936  0.6113 -1.1659 -0.3354
18934SOL    HW258244   6.089   7.302  10.939 -0.1676  0.3176  0.5272
18935SOL     OW58245   0.006   0.011  10.465  0.0089 -0.0823 -0.0695
18935SOL    HW158246   0.082   0.040  10.415  0.5226 -2.1230 -0.5599
18935SOL    HW258247   0.021   0.046  10.553 -0.8641  3.4777 -1.1315
18936SOL     OW58248   1.228   0.095  11.435  0.4065 -0.1640 -0.0665
18936SOL    HW158249   1.140   0.060  11.424 -0.4977  1.5163  1.3946
18936SOL    HW258250   1.277   0.025  11.478 -0.8125 -0.3548  1.0470
18937SOL     OW58251   6.194   7.127   8.979 -0.3377  0.5913 -0.0106
18937SOL    HW158252   6.182   7.037   9.008 -0.9385  0.7468  0.2365
18937SOL    HW258253   6.258   7.120   8.907 -1.0607 -0.1392 -0.6029
18938SOL     OW58254   6.997   1.345  10.313 -0.4239  0.0468 -0.4059
18938SOL    HW158255   6.971   1.420  10.366 -1.0458 -1.3305  1.3190
18938SOL    HW258256   7.076   1.374  10.267  1.4948  0.6771  2.9340
18939SOL     OW58257   3.926   1.488   1.273 -0.2187  0.7092 -0.1451
18939SOL    HW158258   3.943   1.398   1.299  2.8056  1.4500  0.8215
18939SOL    HW258259   3.942   1.539   1.353 -1.1368  2.1830 -0.8509
18940SOL     OW58260   6.902   1.142   1.106 -0.2093  0.2124  0.1858
18940SOL    HW158261   6.931   1.173   1.191 -0.2651 -1.0572  0.6906
18940SOL    HW258262   6.982   1.133   1.054 -0.1292  0.5792  0.2464
18941SOL     OW58263   7.488   6.868  11.448  0.0722  0.4739 -0.2182
18941SOL    HW158264   7.574   6.830  11.466  0.5301  0.8842 -1.4138
18941SOL    HW258265   7.442   6.863  11.531  1.0641 -0.2366  0.3171
18942SOL     OW58266   6.660   0.397   1.513  0.8409 -0.2651 -0.4723
18942SOL    HW158267   6.616   0.476   1.544 -1.6234 -0.9501 -1.9731
18942SOL    HW258268   6.753   0.420   1.514  0.5697  1.3061  2.7565
18943SOL     OW58269   0.916   1.046  10.316  0.0972 -0.0755 -0.0841
18943SOL    HW158270   0.906   0.974  10.378  1.8370 -0.0664  0.2497
18943SOL    HW258271   0.990   1.096  10.349 -0.2253  1.0973 -1.0737
18944SOL     OW58272   7.730   2.543  11.964 -0.3136  0.0632  0.6297
18944SOL    HW158273   7.813   2.573  12.002 -0.7258  1.4819  0.4537
18944SOL    HW258274   7.690   2.490  12.034 -0.3231  1.3059  1.5960
18945SOL     OW58275   5.418   1.437  12.022  0.4892  0.0950 -0.1719
18945SOL    HW158276   5.453   1.349  12.035  0.6067  0.0588 -0.7146
18945SOL    HW258277   5.347   1.426  11.959 -1.2247  0.0118  1.6845
18946SOL     OW58278   0.233   1.253  10.024 -0.1559  0.6927 -0.1522
18946SOL    HW158279   0.244   1.166  10.061  1.4241  0.9021 -0.0741
18946SOL    HW258280   0.246   1.313  10.098 -1.3907  1.0210 -0.1685
18947SOL     OW58281   7.059   7.997  11.267  0.5159  0.1231 -0.6092
18947SOL    HW158282   7.146   7.963  11.249  0.9777  1.0352 -0.1585
18947SOL    HW258283   7.040   8.057  11.195  0.5810  0.5079 -0.3076
18948SOL     OW58284   0.414   2.346  11.898  0.0677 -0.5380 -0.4432
18948SOL    HW158285   0.400   2.418  11.836 -0.1794 -0.6701 -0.5400
18948SOL    HW258286   0.337   2.347  11.954  0.2953 -0.4121 -0.1282
18949SOL     OW58287   0.283   0.815   0.816  0.2460  0.0900  0.2275
18949SOL    HW158288   0.268   0.798   0.909 -0.3738 -1.3776 -0.1065
18949SOL    HW258289   0.195   0.810   0.777  0.5861 -0.0440 -0.5364
18950SOL     OW58290   7.383   1.103   0.201  0.6047  0.8280  0.4598
18950SOL    HW158291   7.291   1.102   0.175  0.9518  3.3290 -1.2287
18950SOL    HW258292   7.421   1.178   0.155  3.5840 -0.2617  0.8730
18951SOL     OW58293   6.164   0.113  11.301  0.2064  0.0411  0.5596
18951SOL    HW158294   6.116   0.058  11.238  0.4734  1.7718 -1.2502
18951SOL    HW258295   6.148   0.071  11.386 -4.0888  0.1816  0.0426
18952SOL     OW58296   7.038   1.940   0.769 -0.3317  0.2283  0.3222
18952SOL    HW158297   6.996   1.902   0.846  0.8037 -1.6962  0.0637
18952SOL    HW258298   7.120   1.977   0.802  0.2353 -0.7424  0.0702
18953SOL     OW58299   7.918   1.013  12.159  0.5522  0.0577  0.3971
18953SOL    HW158300   7.852   0.970  12.213  0.2883 -2.3840 -1.6726
18953SOL    HW258301   7.868   1.070  12.101  0.4574 -0.2258  0.1987
18954SOL     OW58302   5.524   3.258  11.750  0.1586 -0.4492 -0.0556
18954SOL    HW158303   5.606   3.214  11.772 -0.1852 -0.2911  1.6972
18954SOL    HW258304   5.540   3.350  11.771 -0.4319 -0.4023  0.1974
18955SOL     OW58305   6.979   1.146  11.194 -0.1621 -0.0459 -0.0164
18955SOL    HW158306   6.960   1.139  11.100  0.2371 -1.0105 -0.0375
18955SOL    HW258307   7.073   1.164  11.198 -0.5359  2.1128  0.1620
18956SOL     OW58308   6.520   7.209  12.024  0.7416 -0.2952 -0.6694
18956SOL    HW158309   6.546   7.251  11.943  0.4132  0.4721 -0.3860
18956SOL    HW258310   6.558   7.263  12.093  0.3812 -0.5059 -0.3009
18957SOL     OW58311   6.241   1.790   0.201  0.2017 -0.0173  0.8480
18957SOL    HW158312   6.170   1.823   0.147  0.3854 -0.0811  0.5679
18957SOL    HW258313   6.236   1.841   0.281 -0.7053 -0.6081  1.1879
18958SOL     OW58314   6.277   1.465  10.499 -0.2093  0.1614  0.0153
18958SOL    HW158315   6.355   1.463  10.443  0.0798  2.0521  0.2953
18958SOL    HW258316   6.306   1.507  10.579 -1.9265  2.8802 -0.6570
18959SOL     OW58317   7.271   1.112   1.898 -0.1262  0.0577 -0.5568
18959SOL    HW158318   7.311   1.188   1.855  2.0975  0.7930  2.4641
18959SOL    HW258319   7.336   1.042   1.889 -1.3645 -1.0044 -1.7041
18960SOL     OW58320   6.191   1.897   1.049  0.9106 -0.5096 -0.1566
18960SOL    HW158321   6.197   1.981   1.095 -0.6223 -0.0886 -0.6706
18960SOL    HW258322   6.281   1.864   1.049  1.2344  0.2437  1.6792
18961SOL     OW58323   4.728   7.402  11.323 -0.3459 -0.2490  0.1153
18961SOL    HW158324   4.742   7.308  11.307 -1.4521 -0.4869  0.4259
18961SOL    HW258325   4.640   7.418  11.289 -0.4654  0.5108  0.7742
18962SOL     OW58326   4.919   0.516  11.570 -0.3513 -0.2863 -0.6418
18962SOL    HW158327   5.000   0.466  11.585  0.4130  0.5787 -1.6670
18962SOL    HW258328   4.873   0.468  11.501 -0.4203 -0.4604 -0.4735
18963SOL     OW58329   6.600   7.344  12.288 -0.1026  0.4587  0.0965
18963SOL    HW158330   6.530   7.409  12.275  0.6783  1.1682 -0.7419
18963SOL    HW258331   6.565   7.284  12.354 -0.7475  1.9030  1.1483
18964SOL     OW58332   6.689   7.664  12.074  0.5757  0.3269 -0.3215
18964SOL    HW158333   6.732   7.648  11.990 -1.0834  2.1707 -1.6190
18964SOL    HW258334   6.608   7.614  12.069  0.2415  0.8266 -0.0520
18965SOL     OW58335   0.470   1.195  10.409  0.2964 -0.0247 -0.2311
18965SOL    HW158336   0.448   1.288  10.410  2.1980  0.4808  1.4520
18965SOL    HW258337   0.551   1.190  10.358  0.3639 -0.7258 -0.0714
18966SOL     OW58338   5.180   0.293   2.537 -0.2268 -0.0610 -0.0443
18966SOL    HW158339   5.129   0.372   2.519 -0.9256 -0.2837  0.8541
18966SOL    HW258340   5.146   0.228   2.475 -1.4241 -0.3479  0.8657
18967SOL     OW58341   5.742   1.291   0.451 -0.4916 -0.3477  0.1655
18967SOL    HW158342   5.739   1.224   0.519 -0.1378  0.3821  0.9120
18967SOL    HW258343   5.695   1.252   0.377 -1.9827 -0.6617  1.2468
18968SOL     OW58344   4.784   7.908  11.269  0.1160  0.3936 -0.3757
18968SOL    HW158345   4.756   7.829  11.224 -1.1228  1.2110 -1.0772
18968SOL    HW258346   4.734   7.908  11.351  0.3494  0.3066 -0.2300
18969SOL     OW58347   7.158   0.866   0.569 -0.3570  0.5022  0.7191
18969SOL    HW158348   7.214   0.938   0.600  0.8138 -0.1352  0.1683
18969SOL    HW258349   7.215   0.815   0.511 -1.2678 -0.6788  0.8250
18970SOL     OW58350   7.554   0.732  12.265  0.9727  0.3588 -0.9402
18970SOL    HW158351   7.462   0.711  12.253  0.9623 -1.1224  1.1196
18970SOL    HW258352   7.599   0.686  12.194  0.2862 -0.7791 -0.6600
18971SOL     OW58353   6.210   1.332  11.243  0.0671  0.3223 -0.4395
18971SOL    HW158354   6.154   1.255  11.230  0.0087  0.3722 -0.4846
18971SOL    HW258355   6.296   1.296  11.266  0.1901  0.2330 -1.0300
18972SOL     OW58356   0.689   7.406   9.941 -0.0604  0.2754  0.0409
18972SOL    HW158357   0.737   7.482   9.972  2.8369 -1.4773  0.1820
18972SOL    HW258358   0.729   7.332   9.987 -2.6148 -1.3997 -0.2319
18973SOL     OW58359   6.993   1.583  10.484  0.4543 -0.4778 -0.1696
18973SOL    HW158360   6.991   1.666  10.437  0.6445  1.6090  3.2022
18973SOL    HW258361   7.080   1.578  10.522 -0.2351 -1.1144  1.4478
18974SOL     OW58362   0.031   1.165   1.181  0.1709 -0.1156 -0.4749
18974SOL    HW158363  -0.055   1.204   1.170 -0.5881 -1.3033  0.9635
18974SOL    HW258364   0.092   1.231   1.147 -1.1277  1.7779  0.7077
18975SOL     OW58365   4.491   0.785   0.711 -0.5411 -0.0396 -0.3026
18975SOL    HW158366   4.585   0.769   0.715 -0.3607  1.2164  2.3388
18975SOL    HW258367   4.452   0.705   0.748 -0.4114  0.1493  0.2434
18976SOL     OW58368   5.172   0.856   1.342  0.7815  0.2819  0.3102
18976SOL    HW158369   5.259   0.893   1.351  0.6085  0.6439  0.5481
18976SOL    HW258370   5.131   0.906   1.271  1.3146 -0.9689 -0.9186
18977SOL     OW58371   6.657   0.213   0.233  0.1092 -0.6287 -0.5024
18977SOL    HW158372   6.579   0.217   0.288 -0.7766 -0.2406 -1.7494
18977SOL    HW258373   6.676   0.120   0.225 -1.3920 -0.8696 -1.7546
18978SOL     OW58374   6.182   1.499  11.507 -0.3854 -0.3716  0.1812
18978SOL    HW158375   6.168   1.473  11.598  0.7311 -1.0088  0.1912
18978SOL    HW258376   6.267   1.545  11.507 -0.9644  0.7443 -0.3356
18979SOL     OW58377   5.703   0.949  12.326  0.4555 -0.0706  0.2136
18979SOL    HW158378   5.754   0.999  12.263 -0.3924 -1.3026 -1.5629
18979SOL    HW258379   5.730   0.858  12.312  1.3445 -0.2805  2.7505
18980SOL     OW58380   6.547   2.459  11.100 -0.4839  0.2345 -0.4394
18980SOL    HW158381   6.486   2.405  11.049 -0.3158 -0.4521  0.0692
18980SOL    HW258382   6.593   2.396  11.156 -1.9786  1.1313  1.9228
18981SOL     OW58383   7.168   0.616  11.976  0.4289  0.4835 -0.3739
18981SOL    HW158384   7.160   0.522  11.962  2.2169  0.2155  0.1876
18981SOL    HW258385   7.078   0.648  11.979 -0.2666 -1.4454  1.1032
18982SOL     OW58386   3.611   0.212  11.092 -0.0032 -0.2053 -0.6686
18982SOL    HW158387   3.661   0.288  11.062 -0.2518 -0.1969 -1.0585
18982SOL    HW258388   3.591   0.163  11.013  0.8217 -1.0938 -0.3495
18983SOL     OW58389   5.784   7.725  10.556  0.0710 -0.5227 -0.0550
18983SOL    HW158390   5.813   7.764  10.473 -2.7256 -0.2259 -0.9948
18983SOL    HW258391   5.772   7.800  10.614 -0.7018 -0.4297 -0.3231
18984SOL     OW58392   7.349   0.828  11.583 -0.5825 -0.1961 -0.1359
18984SOL    HW158393   7.431   0.867  11.553 -0.5955  2.7644  3.0609
18984SOL    HW258394   7.282   0.869  11.530 -0.3395  1.9408  1.1154
18985SOL     OW58395   6.755   1.253   0.662  0.2022 -0.0755 -0.2212
18985SOL    HW158396   6.798   1.168   0.676 -1.2501 -0.7062  0.6795
18985SOL    HW258397   6.737   1.255   0.569  2.0326  0.1613 -0.6101
18986SOL     OW58398   5.185   2.555  10.775  0.6219 -0.0222  0.2603
18986SOL    HW158399   5.274   2.564  10.741  0.8838  0.5499  1.0746
18986SOL    HW258400   5.134   2.527  10.699  0.9127  2.6231 -1.0602
18987SOL     OW58401   5.189   7.724  10.305 -0.0540  0.4344  0.1322
18987SOL    HW158402   5.251   7.660  10.341  0.3419  0.7317 -0.0006
18987SOL    HW258403   5.200   7.801  10.362  0.6638  0.9499 -0.6711
18988SOL     OW58404   0.268   2.482  12.433  0.4382 -0.5334  0.4955
18988SOL    HW158405   0.329   2.442  12.371  1.0075  1.2020 -0.1512
18988SOL    HW258406   0.305   2.463  12.519  1.3093 -0.4288  0.1548
18989SOL     OW58407   6.495   0.667  11.860 -0.1212  0.1480 -0.3953
18989SOL    HW158408   6.477   0.760  11.875  0.9441  0.4164 -0.6833
18989SOL    HW258409   6.493   0.628  11.948 -0.3415  0.4900 -0.2476
18990SOL     OW58410   0.397   7.101  12.392 -0.3256  0.0174 -0.4989
18990SOL    HW158411   0.367   7.190  12.372 -0.0725  0.1033 -0.5022
18990SOL    HW258412   0.492   7.111  12.405 -0.3124 -0.2372 -0.4138
18991SOL     OW58413   6.967   1.406  11.824 -0.2154  0.2573 -0.0489
18991SOL    HW158414   7.011   1.459  11.758 -0.8524  0.2541 -0.4858
18991SOL    HW258415   6.893   1.366  11.777 -0.0833 -0.5527  0.4128
18992SOL     OW58416   4.525   0.907  12.347  0.2200  0.2836  0.3253
18992SOL    HW158417   4.529   0.814  12.369  1.1391  0.3912  0.6552
18992SOL    HW258418   4.468   0.945  12.415 -0.5237 -0.0957 -0.0686
18993SOL     OW58419   0.405   6.692  11.505 -0.0288  0.5587 -0.0426
18993SOL    HW158420   0.422   6.750  11.431 -0.5468  0.0123 -0.5987
18993SOL    HW258421   0.363   6.615  11.467 -1.2303  0.6922  0.9145
18994SOL     OW58422   5.707   0.193  10.931 -0.0001  0.1368  0.3197
18994SOL    HW158423   5.750   0.222  10.850 -0.8250 -1.4220 -0.7237
18994SOL    HW258424   5.730   0.260  10.995  1.3238  1.0134 -1.0001
18995SOL     OW58425   5.371   7.727   0.789 -0.1211  0.0589  0.2124
18995SOL    HW158426   5.401   7.809   0.750 -0.5935  0.7690  1.2876
18995SOL    HW258427   5.383   7.662   0.720 -0.3046  1.1372 -0.8752
18996SOL     OW58428   6.904   1.056  11.739 -0.0856 -0.1388 -0.5503
18996SOL    HW158429   6.841   1.124  11.764  0.7438  1.3355 -2.2732
18996SOL    HW258430   6.893   1.046  11.645  1.4106 -0.7225 -0.6937
18997SOL     OW58431   7.268   2.821   0.188 -0.5621  1.0631 -0.0356
18997SOL    HW158432   7.229   2.810   0.101  0.1399  1.6478 -0.4342
18997SOL    HW258433   7.283   2.915   0.196 -0.2288  0.9634  0.5519
18998SOL     OW58434   7.608   6.850  12.362 -0.1375 -0.5368  0.0100
18998SOL    HW158435   7.520   6.824  12.390 -0.3759 -0.6620 -0.8178
18998SOL    HW258436   7.620   6.807  12.278  0.4145  0.1152 -0.2583
18999SOL     OW58437   5.341   0.461  12.467  0.2336 -0.0963 -0.5179
18999SOL    HW158438   5.362   0.390  12.527  1.1215  1.6833  1.3979
18999SOL    HW258439   5.301   0.418  12.392 -0.8006 -2.4424  1.2630
19000SOL     OW58440   7.540   1.970   0.401 -0.4089 -0.0695 -0.0110
19000SOL    HW158441   7.460   1.927   0.433 -1.1290  0.5162 -0.9563
19000SOL    HW258442   7.609   1.906   0.415 -1.3996 -1.4634 -1.1069
19001SOL     OW58443   7.851   1.169   0.136  0.5145 -0.7398 -0.4545
19001SOL    HW158444   7.826   1.077   0.131 -1.0944 -0.3320 -0.6133
19001SOL    HW258445   7.800   1.204   0.209  2.2042 -0.2617  0.5643
19002SOL     OW58446   6.725   0.164  10.704  0.0048  0.5345  0.5664
19002SOL    HW158447   6.819   0.147  10.711  0.1339  0.2766 -1.3032
19002SOL    HW258448   6.685   0.079  10.721  0.2656  0.0511 -1.0635
19003SOL     OW58449   7.040   1.878  11.679  0.8163 -0.1930 -0.1443
19003SOL    HW158450   7.106   1.932  11.722 -0.1267  0.1434  0.9193
19003SOL    HW258451   7.003   1.934  11.611 -0.2892  0.5996  1.0778
19004SOL     OW58452   4.889   6.950  10.853  0.0914  0.4004 -0.6207
19004SOL    HW158453   4.815   6.891  10.862 -0.5911  1.4186  0.9323
19004SOL    HW258454   4.957   6.913  10.909 -0.4341  1.1824  0.5753
19005SOL     OW58455   7.141   0.426   0.808 -0.8933 -0.3380 -0.5242
19005SOL    HW158456   7.071   0.491   0.810 -2.5778 -1.9191 -2.7124
19005SOL    HW258457   7.096   0.343   0.795  1.3324 -1.6368 -0.4630
19006SOL     OW58458   7.591   1.830  10.138 -0.1381  0.8420 -0.3058
19006SOL    HW158459   7.501   1.805  10.157  0.5937 -1.1065  0.8930
19006SOL    HW258460   7.620   1.876  10.216  0.0713  1.0086 -0.4795
19007SOL     OW58461   7.357   1.049  11.794  0.3536  0.0923  0.3734
19007SOL    HW158462   7.344   1.091  11.879  1.4860 -0.2177  0.7229
19007SOL    HW258463   7.310   1.105  11.732  0.9838  1.3368  0.9624
19008SOL     OW58464   6.144   1.965  12.012 -0.2003 -0.2461 -0.6298
19008SOL    HW158465   6.088   1.984  11.937 -0.4010  0.3960 -0.3265
19008SOL    HW258466   6.213   2.032  12.008 -0.7153  0.3550  0.2548
19009SOL     OW58467   5.570   7.584  11.099 -0.1140  0.6004  0.5793
19009SOL    HW158468   5.504   7.564  11.033  0.4851 -0.2476  0.2216
19009SOL    HW258469   5.626   7.507  11.102  0.9264  1.3317  0.8004
19010SOL     OW58470   7.342   7.077   9.474  0.2657  0.4142 -0.3662
19010SOL    HW158471   7.379   6.993   9.501  3.0104  1.7088  0.3238
19010SOL    HW258472   7.296   7.109   9.552  1.9533  0.8994  0.4846
19011SOL     OW58473   7.577   7.274  10.674 -0.0031 -0.4679 -0.6138
19011SOL    HW158474   7.587   7.216  10.749  0.2087  0.0724 -0.2219
19011SOL    HW258475   7.491   7.252  10.638 -1.5090  1.3994  1.6364
19012SOL     OW58476   7.810   2.836  11.783  0.4551 -0.3880 -0.1776
19012SOL    HW158477   7.895   2.815  11.743  0.6945 -2.2448  1.1725
19012SOL    HW258478   7.828   2.914  11.836  1.5568 -1.1924  0.6900
19013SOL     OW58479   5.556   0.360  11.405  0.3726 -0.5803  0.0971
19013SOL    HW158480   5.549   0.424  11.476 -0.0667 -1.5001  0.9122
19013SOL    HW258481   5.633   0.387  11.355 -0.2648  1.0449 -0.0638
19014SOL     OW58482   6.683   1.756  11.429  0.4861  0.7523 -0.5873
19014SOL    HW158483   6.669   1.843  11.465 -1.4191  1.0501 -1.9376
19014SOL    HW258484   6.778   1.751  11.415  1.1076  1.3099  2.5453
19015SOL     OW58485   6.397   7.930   9.924 -0.4710  0.4900 -0.5249
19015SOL    HW158486   6.331   7.898   9.862 -2.9484 -0.3824  2.3270
19015SOL    HW258487   6.430   7.851   9.966  0.1102  1.1243  0.2342
19016SOL     OW58488   5.928   0.106  10.434  0.0142 -0.4808  0.1558
19016SOL    HW158489   5.972   0.148  10.508 -2.6615  0.8007  1.1962
19016SOL    HW258490   5.929   0.172  10.365  2.3448 -1.6095 -0.9869
19017SOL     OW58491   6.582   1.931  10.328  0.4878  0.2351 -0.3941
19017SOL    HW158492   6.492   1.960  10.324  1.4067  3.3823 -0.4418
19017SOL    HW258493   6.620   1.978  10.402  2.5019  0.2957 -1.4002
19018SOL     OW58494   0.199   2.396  12.055  0.0470 -0.1228 -0.3940
19018SOL    HW158495   0.146   2.406  12.134  0.2230 -0.1656 -0.2728
19018SOL    HW258496   0.195   2.482  12.013 -1.2464 -0.4850 -1.0943
19019SOL     OW58497   5.411   6.601  11.980  0.4832 -0.0778 -0.4521
19019SOL    HW158498   5.381   6.627  11.893  1.5698 -0.8683 -1.0794
19019SOL    HW258499   5.347   6.641  12.040 -0.7720 -0.2348 -1.6359
19020SOL     OW58500   5.290   0.863   0.743 -0.2710 -0.3716  0.4518
19020SOL    HW158501   5.207   0.883   0.699  0.3332 -0.1068 -0.5999
19020SOL    HW258502   5.301   0.934   0.806  0.0857  0.6858 -0.7531
19021SOL     OW58503   5.694   1.274  12.427  0.3440  0.3475  0.0338
19021SOL    HW158504   5.652   1.192  12.454  1.6499 -0.0460  0.9595
19021SOL    HW258505   5.666   1.338  12.492  0.1820  0.3959 -0.0805
19022SOL     OW58506   7.978   7.209  11.140 -0.5148 -0.4217  0.6541
19022SOL    HW158507   7.959   7.116  11.154 -0.8938 -0.4651 -0.1241
19022SOL    HW258508   8.014   7.214  11.051 -2.5088  0.4315 -0.1782
19023SOL     OW58509   5.775   0.314  12.240  0.2929 -0.1288 -1.0074
19023SOL    HW158510   5.784   0.232  12.192  1.6656 -1.0531  0.6688
19023SOL    HW258511   5.866   0.338  12.262 -0.1402  1.4431 -0.8280
19024SOL     OW58512   7.037   1.498   1.216  0.5993  0.3434 -0.1768
19024SOL    HW158513   7.035   1.587   1.252 -0.6915  0.9528 -1.6038
19024SOL    HW258514   6.970   1.499   1.147  0.7760 -1.6577 -0.4353
19025SOL     OW58515   4.036   1.990   2.874 -0.0014  0.1905  0.4371
19025SOL    HW158516   4.067   1.900   2.867  0.6995  0.2229  2.4073
19025SOL    HW258517   4.060   2.030   2.791 -0.1001 -1.3674 -0.3714
19026SOL     OW58518   7.398   0.833   1.345 -0.0527 -0.3309  0.5241
19026SOL    HW158519   7.387   0.755   1.291  1.3281  0.1195 -0.4681
19026SOL    HW258520   7.473   0.813   1.401  2.1446  1.2090 -1.6553
19027SOL     OW58521   6.812   0.742   0.412  0.6214  0.1575 -0.3588
19027SOL    HW158522   6.781   0.652   0.420  1.7154 -0.3438 -1.4168
19027SOL    HW258523   6.763   0.779   0.339  0.3654  0.3311 -0.0993
19028SOL     OW58524   6.197   0.363   0.348 -0.0451 -0.2551  0.5792
19028SOL    HW158525   6.113   0.407   0.361  0.2993  0.0665  1.8806
19028SOL    HW258526   6.248   0.385   0.426  0.6456 -1.8347  0.6155
19029SOL     OW58527   7.689   7.709  10.004 -0.4198 -0.4628  0.8668
19029SOL    HW158528   7.605   7.668   9.982 -0.8043 -0.0018  1.4466
19029SOL    HW258529   7.752   7.665   9.947 -1.2718  0.2196 -0.6638
19030SOL     OW58530   7.516   7.701  12.472 -0.1755 -0.2110  0.2508
19030SOL    HW158531   7.446   7.642  12.444 -1.1982  0.2809  1.6456
19030SOL    HW258532   7.473   7.786  12.481  0.7639  0.2481  0.5011
19031SOL     OW58533   7.147   7.791  11.774 -0.0085 -0.1783 -0.4520
19031SOL    HW158534   7.158   7.717  11.714 -2.3476  1.1812 -2.7799
19031SOL    HW258535   7.109   7.860  11.720 -1.6012  1.4258  2.4692
19032SOL     OW58536   5.364   1.755  11.357  0.0083 -0.0395 -0.2135
19032SOL    HW158537   5.320   1.782  11.438 -0.5452 -1.4142 -0.0370
19032SOL    HW258538   5.366   1.835  11.304 -3.0926  0.0441 -0.3883
19033SOL     OW58539   6.382   1.532   0.044 -0.6790 -0.2964 -0.2122
19033SOL    HW158540   6.309   1.529  -0.018  0.6086  1.0634 -1.8894
19033SOL    HW258541   6.363   1.607   0.100 -0.1497  0.6576 -1.2687
19034SOL     OW58542   4.694   2.633   0.271  0.6878 -0.0746  0.1269
19034SOL    HW158543   4.644   2.581   0.209  0.3291 -0.4491  0.7145
19034SOL    HW258544   4.770   2.578   0.293 -0.2245 -0.8428  1.5433
19035SOL     OW58545   6.740   1.649  12.390 -0.8047 -0.5722  0.3231
19035SOL    HW158546   6.664   1.677  12.339  0.5303 -0.6333 -1.8484
19035SOL    HW258547   6.720   1.559  12.415 -0.7280 -1.2470 -1.8384
19036SOL     OW58548   7.211   1.411   0.245  0.1934 -0.1219 -0.2709
19036SOL    HW158549   7.275   1.358   0.198 -0.6419  1.2087 -3.1140
19036SOL    HW258550   7.222   1.499   0.209 -1.7559  0.5887  0.7577
19037SOL     OW58551   5.240   2.413   0.228 -0.6513 -0.2873 -0.7058
19037SOL    HW158552   5.226   2.424   0.322  3.0296  2.2850 -0.2626
19037SOL    HW258553   5.237   2.502   0.193  2.7102 -0.5830 -2.1216
19038SOL     OW58554   7.331   1.989   1.864  0.0976 -0.4183 -0.2366
19038SOL    HW158555   7.245   1.957   1.890  0.8964 -0.7527  2.3188
19038SOL    HW258556   7.328   2.083   1.885  0.1483 -0.3051 -0.7370
19039SOL     OW58557   7.479   2.249  11.960 -0.2553 -0.0567 -0.4530
19039SOL    HW158558   7.394   2.223  11.994 -0.0033  0.1697  0.3592
19039SOL    HW258559   7.484   2.205  11.875  0.0254 -2.4953  0.7200
19040SOL     OW58560   7.361   0.532   1.362 -0.5279  0.5375  0.1288
19040SOL    HW158561   7.434   0.526   1.299 -0.6179 -0.0708  0.0746
19040SOL    HW258562   7.396   0.584   1.434 -0.2468  0.7859 -0.1813
19041SOL     OW58563   6.288   2.897   0.361  0.6669  0.2948  0.1709
19041SOL    HW158564   6.215   2.940   0.404  0.6906  1.6922 -1.1010
19041SOL    HW258565   6.366   2.944   0.391  0.9278 -0.3788  0.5657
19042SOL     OW58566   6.169   3.762   0.255 -0.7404 -0.5039  0.3981
19042SOL    HW158567   6.105   3.742   0.187  0.6039  1.9074 -1.7474
19042SOL    HW258568   6.241   3.701   0.240 -1.2964 -1.3476  1.0393
19043SOL     OW58569   6.585   3.088   1.793 -0.1351  0.1171  0.0825
19043SOL    HW158570   6.617   3.155   1.732 -0.7505 -0.8172 -1.3163
19043SOL    HW258571   6.555   3.138   1.869  0.6733  1.3150 -0.3463
19044SOL     OW58572   6.840   3.597   1.413  0.0478 -0.1796  0.1414
19044SOL    HW158573   6.894   3.527   1.450  0.9280 -0.2521 -1.2342
19044SOL    HW258574   6.890   3.629   1.338 -1.9494 -0.4710 -1.3896
19045SOL     OW58575   4.448   3.178   1.718  0.0297  0.7509 -0.1622
19045SOL    HW158576   4.373   3.236   1.703 -1.1705 -0.2774  1.4378
19045SOL    HW258577   4.443   3.156   1.812  0.6056 -1.6399 -0.6128
19046SOL     OW58578   7.955   2.515   2.640 -0.4886  0.0512 -0.0195
19046SOL    HW158579   8.044   2.544   2.660 -1.0748  1.1553  1.1788
19046SOL    HW258580   7.966   2.434   2.590  1.1743  0.1946  0.0673
19047SOL     OW58581   6.330   3.015  12.378  0.2020 -0.9415  0.1909
19047SOL    HW158582   6.343   3.078  12.448  0.3633  0.6743 -1.2260
19047SOL    HW258583   6.411   3.019  12.326  0.1628 -2.2252 -0.0165
19048SOL     OW58584   7.704   0.415   1.028 -0.2928 -0.5523  0.5700
19048SOL    HW158585   7.618   0.439   1.063  0.0659  2.4336 -0.3090
19048SOL    HW258586   7.747   0.369   1.100 -1.4491  0.7815  2.1996
19049SOL     OW58587   7.741   2.657  12.373  0.1691 -0.3777 -0.7542
19049SOL    HW158588   7.664   2.632  12.321  1.6741  0.1895 -3.4548
19049SOL    HW258589   7.744   2.593  12.444 -2.1711 -1.0586 -1.1732
19050SOL     OW58590   0.939   2.260   2.649  0.0066 -0.3958 -0.3893
19050SOL    HW158591   0.924   2.327   2.582  0.3144 -0.9769 -1.0428
19050SOL    HW258592   1.030   2.273   2.675  0.0049 -0.4281 -0.3674
19051SOL     OW58593   6.244   4.965   1.052 -0.3247 -0.3169 -0.0380
19051SOL    HW158594   6.241   4.890   0.994 -0.8854  0.0947 -0.5542
19051SOL    HW258595   6.326   5.010   1.031 -0.6759  0.0089 -0.7494
19052SOL     OW58596   6.062   3.049  11.788  0.3900  0.2345 -0.4322
19052SOL    HW158597   6.069   3.119  11.723 -3.0934 -1.5685 -3.1114
19052SOL    HW258598   6.014   3.090  11.861  0.1624  1.1501 -1.0716
19053SOL     OW58599   7.351   4.372   2.667  0.3566 -0.4440 -0.5941
19053SOL    HW158600   7.353   4.362   2.762  0.6563 -0.2656 -0.5787
19053SOL    HW258601   7.316   4.460   2.652  1.5159  0.0291 -0.6067
19054SOL     OW58602   6.690   3.002   0.239  0.4886 -0.2788  0.4875
19054SOL    HW158603   6.710   2.943   0.312 -1.9732 -0.5257  1.0600
19054SOL    HW258604   6.749   3.076   0.251  0.9212 -0.8420  2.0708
19055SOL     OW58605   7.384   3.188   1.438 -0.1832  0.1330 -0.1547
19055SOL    HW158606   7.430   3.257   1.390 -2.2645  0.5507 -1.6914
19055SOL    HW258607   7.452   3.145   1.489  1.8179  0.9563 -1.9795
19056SOL     OW58608   6.723   2.261   1.142 -0.3358 -0.8613  0.3198
19056SOL    HW158609   6.675   2.286   1.063  1.7147  0.1243 -0.6953
19056SOL    HW258610   6.658   2.264   1.212 -1.9354 -0.5409 -1.1302
19057SOL     OW58611   7.658   2.219  12.452 -0.2358  0.4144 -0.2035
19057SOL    HW158612   7.574   2.179  12.475 -0.0405  0.6825  1.0244
19057SOL    HW258613   7.671   2.287  12.518  1.2654 -0.0683  0.0265
19058SOL     OW58614   4.253   3.508   1.443 -0.0606 -0.4955  0.3084
19058SOL    HW158615   4.268   3.507   1.348 -1.1608 -0.3916  0.1223
19058SOL    HW258616   4.158   3.515   1.452  0.1398  1.5911  1.4127
19059SOL     OW58617   6.918   0.687  12.015 -0.0850 -0.0021  0.6291
19059SOL    HW158618   6.835   0.663  11.973  0.9563 -0.7788 -1.0695
19059SOL    HW258619   6.899   0.771  12.057 -1.8178 -0.3153  0.5794
19060SOL     OW58620   0.316   4.124   1.839 -0.6890  0.3089  0.3680
19060SOL    HW158621   0.349   4.034   1.839 -1.2514  0.0962  0.1650
19060SOL    HW258622   0.289   4.140   1.930 -1.5248 -0.0867  0.1968
19061SOL     OW58623   3.786   1.458   0.327 -0.3836  0.1556 -0.1713
19061SOL    HW158624   3.783   1.479   0.421  0.7470  1.1476 -0.3368
19061SOL    HW258625   3.720   1.515   0.288 -0.1363  0.5004 -0.0956
19062SOL     OW58626   5.759   3.644  12.424  0.1523  0.1306 -0.0666
19062SOL    HW158627   5.713   3.712  12.374  2.0729  1.5552 -0.0051
19062SOL    HW258628   5.706   3.635  12.504  0.5085  2.5398  0.5207
19063SOL     OW58629   5.795   3.410   0.798 -0.1724  0.1676  0.3991
19063SOL    HW158630   5.867   3.470   0.777 -0.3356 -0.0042 -0.6889
19063SOL    HW258631   5.717   3.465   0.796 -0.0192  0.5253  2.3759
19064SOL     OW58632   5.843   1.606   0.829 -0.4138 -0.4085  1.1356
19064SOL    HW158633   5.915   1.636   0.884  0.2626 -0.3727  0.2553
19064SOL    HW258634   5.851   1.511   0.828 -0.6110 -0.4286  1.3389
19065SOL     OW58635   5.269   3.659   1.285  0.2152  0.4885  0.0068
19065SOL    HW158636   5.337   3.615   1.336 -0.5484 -0.5770  0.1441
19065SOL    HW258637   5.215   3.588   1.251 -0.2186  1.2705 -0.9726
19066SOL     OW58638   7.025   2.133  12.230 -0.0094  0.0694  0.6838
19066SOL    HW158639   6.956   2.110  12.292  0.8606 -0.1706  1.5792
19066SOL    HW258640   7.051   2.222  12.255 -0.9983  0.7619 -0.6013
19067SOL     OW58641   7.267   3.875   2.923  0.1723 -0.0991 -0.0311
19067SOL    HW158642   7.229   3.790   2.900 -2.2777  0.9366 -0.0493
19067SOL    HW258643   7.307   3.861   3.009  0.5591 -1.4470 -0.3974
19068SOL     OW58644   4.882   2.013   2.911 -0.3637 -0.3157 -0.1560
19068SOL    HW158645   4.894   2.101   2.875  1.6187  0.0877  1.2783
19068SOL    HW258646   4.821   2.025   2.984 -1.0176 -0.3568 -0.6908
19069SOL     OW58647   7.965   2.533   0.877  0.2482  0.0163 -0.2096
19069SOL    HW158648   7.876   2.520   0.907 -0.0952 -1.7833 -1.8157
19069SOL    HW258649   7.991   2.618   0.914 -1.1130 -0.6466  2.5339
19070SOL     OW58650   5.116   4.324   0.984  0.2200  0.1325  0.3219
19070SOL    HW158651   5.039   4.345   0.933  1.6150  2.5132 -0.9892
19070SOL    HW258652   5.086   4.259   1.048 -2.6849  0.5938 -0.4498
19071SOL     OW58653   7.542   4.394   0.084 -0.1152  0.1539 -0.4635
19071SOL    HW158654   7.634   4.406   0.063  0.4553 -0.3218  1.5541
19071SOL    HW258655   7.497   4.399  -0.000  1.9320 -1.6209 -1.7572
19072SOL     OW58656   5.524   1.779   2.146 -0.3020 -0.5000  0.2332
19072SOL    HW158657   5.507   1.850   2.209  0.1880  0.1603 -0.3642
19072SOL    HW258658   5.613   1.795   2.115  0.1881 -1.9607  0.8052
19073SOL     OW58659   4.924   4.022  12.385 -0.1807 -0.3144  0.1691
19073SOL    HW158660   5.002   4.014  12.440 -0.3109 -0.2238  0.3671
19073SOL    HW258661   4.923   3.941  12.334 -0.5626 -0.8229  0.9556
19074SOL     OW58662   6.039   1.433   1.358 -0.6497  0.4877  0.5949
19074SOL    HW158663   6.126   1.400   1.339 -0.8918 -0.2159  0.6796
19074SOL    HW258664   6.050   1.528   1.365  0.0432  0.4341  0.2757
19075SOL     OW58665   6.072   3.510   1.599  0.5308  0.3277  0.2255
19075SOL    HW158666   6.007   3.580   1.597  1.3025  1.1208 -2.9517
19075SOL    HW258667   6.157   3.556   1.594  1.0369 -0.7082 -2.3005
19076SOL     OW58668   7.562   2.358   1.163 -0.5135 -0.3652  0.1241
19076SOL    HW158669   7.584   2.297   1.094 -1.3529  1.2018 -1.6216
19076SOL    HW258670   7.607   2.439   1.139 -1.3406  0.4105  1.0691
19077SOL     OW58671   6.768   1.567   0.691 -0.1207 -0.0703 -0.0521
19077SOL    HW158672   6.685   1.522   0.676 -0.8758  0.8549  1.0881
19077SOL    HW258673   6.825   1.501   0.730 -1.2177 -0.0947  1.6328
19078SOL     OW58674   6.854   3.778  10.843  0.4555 -1.1635  0.0241
19078SOL    HW158675   6.831   3.728  10.764  0.1756 -2.2382  0.7689
19078SOL    HW258676   6.949   3.784  10.841  0.4384 -0.9960 -0.5006
19079SOL     OW58677   6.944   2.006   1.942 -0.3294  0.0526  0.0927
19079SOL    HW158678   6.952   2.043   1.855 -0.4912 -3.5672 -1.6522
19079SOL    HW258679   6.854   1.971   1.945 -0.2109 -0.1892  1.5741
19080SOL     OW58680   5.159   3.588   2.344  0.3380  0.2197 -0.1776
19080SOL    HW158681   5.095   3.531   2.386 -0.2839  0.1825 -1.1341
19080SOL    HW258682   5.125   3.676   2.358  1.2195  0.3613  1.1689
19081SOL     OW58683   5.285   2.587  11.616  0.0070 -0.0523  0.3573
19081SOL    HW158684   5.311   2.675  11.642 -0.7815  0.8427 -1.6983
19081SOL    HW258685   5.214   2.600  11.553  1.3197 -2.0031 -1.7157
19082SOL     OW58686   7.764   2.254   1.302  0.0174  0.4714 -0.7045
19082SOL    HW158687   7.755   2.308   1.380 -0.6769 -0.6556  0.0270
19082SOL    HW258688   7.700   2.288   1.241  1.1304  1.8921 -1.1299
19083SOL     OW58689   6.367   2.689   0.077 -0.1351 -0.5210 -0.6212
19083SOL    HW158690   6.290   2.745   0.064 -0.4453 -0.8686 -0.3004
19083SOL    HW258691   6.354   2.651   0.163  0.4216 -0.5542 -0.5478
19084SOL     OW58692   6.517   1.677   1.681 -0.2069 -0.0933 -0.2175
19084SOL    HW158693   6.552   1.608   1.737  4.6002  2.8073  0.9869
19084SOL    HW258694   6.547   1.655   1.593  0.3313 -0.1201 -0.0283
19085SOL     OW58695   5.613   3.345   0.464  0.4212  0.1182 -0.2013
19085SOL    HW158696   5.604   3.263   0.512  1.7870  0.4619  0.7134
19085SOL    HW258697   5.699   3.338   0.421  1.2112  1.5979  1.0302
19086SOL     OW58698   4.265   4.106   1.832  0.6202 -0.3324 -0.1926
19086SOL    HW158699   4.221   4.036   1.879  0.0985 -0.1940 -0.4695
19086SOL    HW258700   4.197   4.172   1.818 -0.0003 -1.4359 -3.4091
19087SOL     OW58701   7.254   2.347   0.192  1.0400 -0.4734  1.1264
19087SOL    HW158702   7.174   2.327   0.144  1.4882  0.0919  0.1040
19087SOL    HW258703   7.278   2.265   0.234  0.8417 -1.1081  0.0509
19088SOL     OW58704   6.685   3.507   0.362  0.3101 -0.3146  1.3178
19088SOL    HW158705   6.757   3.470   0.413  2.6644  0.5702 -1.0891
19088SOL    HW258706   6.727   3.540   0.282 -2.5247  1.8956  0.5594
19089SOL     OW58707   6.481   3.971  12.367 -0.2475 -0.1213 -0.2208
19089SOL    HW158708   6.390   3.995  12.383 -0.0211  0.5524  0.0931
19089SOL    HW258709   6.526   4.054  12.355 -0.0182 -0.4894 -2.4058
19090SOL     OW58710   0.077   2.855   0.735 -0.4610  0.0222  0.3964
19090SOL    HW158711   0.040   2.858   0.823  1.8641 -1.4859  1.5089
19090SOL    HW258712   0.039   2.777   0.696 -0.5832  0.0314  0.4958
19091SOL     OW58713   5.339   3.665   1.634 -0.5581  0.1756  0.4861
19091SOL    HW158714   5.342   3.667   1.729  1.7054  0.5819  0.4742
19091SOL    HW258715   5.270   3.727   1.610  0.1564  1.5525  1.8440
19092SOL     OW58716   6.846   4.252  11.949  0.2236 -0.3708 -0.0246
19092SOL    HW158717   6.860   4.304  12.028 -0.0402 -1.2304  0.5912
19092SOL    HW258718   6.849   4.317  11.878  2.7075  0.1517  0.4400
19093SOL     OW58719   4.079   1.859   1.142  0.4283 -0.1374 -0.0497
19093SOL    HW158720   4.053   1.941   1.099  1.1472  0.8122  1.2432
19093SOL    HW258721   3.997   1.815   1.164  0.0067  0.7871  0.2524
19094SOL     OW58722   7.235   1.806  10.681  0.7761 -0.7342 -0.0698
19094SOL    HW158723   7.286   1.806  10.600 -0.9578 -0.3799 -1.2232
19094SOL    HW258724   7.163   1.868  10.664  0.5283 -0.4249  1.8554
19095SOL     OW58725   6.927   2.172  11.830 -0.1446  0.2490 -0.2140
19095SOL    HW158726   6.903   2.263  11.845  0.5980  0.4924 -0.4579
19095SOL    HW258727   6.914   2.158  11.736  1.3050  0.5944 -0.4893
19096SOL     OW58728   7.706   2.715  11.159 -0.7991  0.3022 -0.4131
19096SOL    HW158729   7.631   2.685  11.109 -0.5358 -1.3615  0.1422
19096SOL    HW258730   7.757   2.768  11.098 -0.8480 -1.0985 -1.7046
19097SOL     OW58731   7.660   3.408   1.060  0.1451  0.0401  0.1047
19097SOL    HW158732   7.622   3.469   0.996  0.3905  0.8806  0.7438
19097SOL    HW258733   7.754   3.425   1.056  0.1991 -0.1938  0.3913
19098SOL     OW58734   7.057   2.927   0.660  0.2038 -0.1835 -0.4490
19098SOL    HW158735   7.047   2.931   0.565 -0.0764 -0.9127 -0.4655
19098SOL    HW258736   7.151   2.936   0.675  0.4088 -1.3423 -0.8974
19099SOL     OW58737   4.920   2.413   0.657 -0.1561  0.9268 -0.3804
19099SOL    HW158738   4.883   2.325   0.667  0.6984  0.5716 -0.2939
19099SOL    HW258739   4.983   2.421   0.728  0.1161  1.4352 -0.6741
19100SOL     OW58740   6.695   1.565   1.185 -0.2396 -0.1812  0.1697
19100SOL    HW158741   6.726   1.655   1.180 -0.5564 -0.0004  1.2219
19100SOL    HW258742   6.750   1.517   1.123 -0.4101  0.8142 -0.7733
19101SOL     OW58743   6.706   1.185  12.386  0.0922  0.0068  0.2800
19101SOL    HW158744   6.658   1.264  12.410 -0.5080 -0.7801  1.7569
19101SOL    HW258745   6.638   1.122  12.362  0.4754 -0.6020  0.7823
19102SOL     OW58746   5.752   2.575   1.438 -0.1259 -0.2053  0.0451
19102SOL    HW158747   5.712   2.640   1.380  1.2432 -0.0697 -0.7980
19102SOL    HW258748   5.684   2.553   1.501 -1.4508  0.1592 -1.2166
19103SOL     OW58749   6.494   2.945   0.564 -0.4292  0.6726 -0.5994
19103SOL    HW158750   6.564   2.881   0.554 -1.4607 -0.9089  1.4399
19103SOL    HW258751   6.510   3.009   0.495  2.8573  0.2695 -0.3968
19104SOL     OW58752   6.691   3.025   0.896 -0.3591  0.5075 -0.0462
19104SOL    HW158753   6.650   3.026   0.982  0.8624 -2.9025  0.7450
19104SOL    HW258754   6.618   3.026   0.834 -1.3748  0.3068  1.1175
19105SOL     OW58755   7.689   2.593  11.650 -0.1386 -0.3235 -0.2034
19105SOL    HW158756   7.708   2.648  11.575 -1.6159  0.4155 -0.0766
19105SOL    HW258757   7.767   2.539  11.661  1.9801  2.6134  0.4648
19106SOL     OW58758   6.944   3.963   0.227  0.2455 -0.0401  0.5934
19106SOL    HW158759   6.992   3.915   0.160  0.3659  0.4810  0.2985
19106SOL    HW258760   6.976   4.053   0.220 -0.1751  0.1431  0.9489
19107SOL     OW58761   7.607   1.441   0.344 -0.5835 -0.0037  0.0353
19107SOL    HW158762   7.583   1.394   0.424 -2.6083 -0.2968 -0.6691
19107SOL    HW258763   7.560   1.525   0.351 -0.4923  0.1143 -0.6754
19108SOL     OW58764   1.835   1.171  10.634  0.1840 -0.4629  0.2235
19108SOL    HW158765   1.798   1.145  10.718 -1.0235 -0.2946 -0.2337
19108SOL    HW258766   1.826   1.267  10.633 -1.3060 -0.5661 -0.7251
19109SOL     OW58767   5.926   2.274  12.021  0.1241 -0.3768 -0.2145
19109SOL    HW158768   6.021   2.277  12.027  0.0744  3.4144  0.9926
19109SOL    HW258769   5.908   2.282  11.927  1.0125  0.2239 -0.3425
19110SOL     OW58770   6.658   1.999   0.405 -0.3494  0.9227 -0.1757
19110SOL    HW158771   6.568   1.968   0.394 -0.3624  0.0881  1.8325
19110SOL    HW258772   6.656   2.052   0.485  1.5851 -2.3475  2.3143
19111SOL     OW58773   7.335   2.136  12.327  0.0102  0.2898 -0.3923
19111SOL    HW158774   7.305   2.049  12.303 -2.4754  0.8330  0.4476
19111SOL    HW258775   7.365   2.126  12.418 -2.8734  0.7292  0.7292
19112SOL     OW58776   7.053   3.443   1.157  0.4181 -0.2187  0.1023
19112SOL    HW158777   7.034   3.525   1.203  0.0067 -0.2580  0.0027
19112SOL    HW258778   7.138   3.416   1.191 -0.3299 -0.7780  1.5893
19113SOL     OW58779   4.670   3.478   1.146 -0.1431 -0.2412 -0.3535
19113SOL    HW158780   4.652   3.567   1.175 -0.7528 -0.2752 -0.5938
19113SOL    HW258781   4.715   3.437   1.219  0.3188  0.3192 -0.3173
19114SOL     OW58782   6.655   3.781  12.408  0.0965 -0.1106 -0.2233
19114SOL    HW158783   6.586   3.841  12.381  0.6498 -0.3745 -2.3726
19114SOL    HW258784   6.715   3.777  12.333 -0.0906 -3.6205 -0.3540
19115SOL     OW58785   5.327   1.746  12.238 -0.1904 -0.8615  0.0415
19115SOL    HW158786   5.240   1.720  12.267 -0.2929 -0.9327 -0.3259
19115SOL    HW258787   5.334   1.711  12.149  1.2671 -3.3128  1.0272
19116SOL     OW58788   6.044   1.754  12.126 -0.3921  0.0986  0.8063
19116SOL    HW158789   6.046   1.691  12.054  0.3069  1.5877 -0.5289
19116SOL    HW258790   6.089   1.831  12.092  1.3821  0.3354  3.3555
19117SOL     OW58791   7.044   1.838   0.525 -0.1661  0.6157  0.2415
19117SOL    HW158792   6.961   1.797   0.501 -1.0718  2.3864  0.1822
19117SOL    HW258793   7.038   1.851   0.619 -0.2456  1.3200  0.1448
19118SOL     OW58794   6.792   4.079  11.498  0.1033  0.0206 -0.0218
19118SOL    HW158795   6.856   4.147  11.474  0.1994 -0.3184 -0.7576
19118SOL    HW258796   6.741   4.118  11.569 -0.5888  1.3051 -1.1810
19119SOL     OW58797   6.543   0.675   1.287  0.4103  0.1707 -0.4628
19119SOL    HW158798   6.523   0.711   1.200  0.5708 -0.3012 -0.6948
19119SOL    HW258799   6.494   0.594   1.291 -1.9562  1.5716  1.0281
19120SOL     OW58800   6.576   4.613   0.420 -0.4720 -0.7297 -0.0492
19120SOL    HW158801   6.599   4.616   0.513  2.0779  0.7240 -0.6109
19120SOL    HW258802   6.546   4.701   0.400 -2.1756 -1.3571 -0.3976
19121SOL     OW58803   7.287   2.818   3.170  0.3340  0.0785  0.5250
19121SOL    HW158804   7.222   2.858   3.228  1.6557  1.0538  1.3865
19121SOL    HW258805   7.274   2.861   3.086  0.8065  1.3396  1.0719
19122SOL     OW58806   6.713   1.477  11.484 -0.1105 -0.2657 -0.1804
19122SOL    HW158807   6.676   1.444  11.565 -0.8911  0.9668 -0.0091
19122SOL    HW258808   6.680   1.567  11.477 -0.3817 -0.4687 -2.0564
19123SOL     OW58809   5.287   1.796   1.145 -0.0501 -0.2153 -0.3367
19123SOL    HW158810   5.241   1.713   1.133 -1.2494  0.6263 -1.8128
19123SOL    HW258811   5.375   1.780   1.111 -0.5743 -0.6175 -1.5625
19124SOL     OW58812   7.584   2.530   0.483 -0.6396  0.1877 -0.0436
19124SOL    HW158813   7.600   2.447   0.439  0.6087  0.3504  0.0770
19124SOL    HW258814   7.633   2.594   0.431 -0.4742  0.6315  0.6438
19125SOL     OW58815   5.594   4.266   0.479 -0.1038 -0.2109  0.0643
19125SOL    HW158816   5.674   4.225   0.449  0.6174 -0.1109  1.7463
19125SOL    HW258817   5.560   4.207   0.547  0.3146  1.2820  1.6560
19126SOL     OW58818   5.207   1.457   0.088  0.3491 -0.0573 -0.2926
19126SOL    HW158819   5.124   1.421   0.118  0.1102  1.3592  0.8566
19126SOL    HW258820   5.262   1.381   0.072 -0.8583 -0.9843 -0.1501
19127SOL     OW58821   7.844   2.421   0.553 -0.2300  0.1695  0.3621
19127SOL    HW158822   7.784   2.351   0.530  0.6514 -0.2171 -0.8603
19127SOL    HW258823   7.878   2.396   0.639 -2.6178  0.9860  1.6421
19128SOL     OW58824   7.388   3.346   0.754  0.6182 -0.1318  0.3226
19128SOL    HW158825   7.345   3.400   0.821 -1.5545  0.6529 -1.5498
19128SOL    HW258826   7.340   3.366   0.674  1.0286 -3.3642 -0.8844
19129SOL     OW58827   1.005   2.619   2.132  0.4737  0.0893  0.0816
19129SOL    HW158828   1.072   2.564   2.091 -0.6966 -2.1549  1.0015
19129SOL    HW258829   0.922   2.580   2.105 -0.3767  0.4309  2.0009
19130SOL     OW58830   7.035   2.502  11.964 -0.0866  0.2198 -0.1530
19130SOL    HW158831   7.081   2.477  12.044  0.4933  0.1191 -0.5134
19130SOL    HW258832   6.993   2.585  11.985 -2.8378 -1.3795  1.3988
19131SOL     OW58833   7.068   2.961   0.391 -0.1546 -0.3041 -0.5825
19131SOL    HW158834   7.057   2.876   0.347 -0.5603 -0.3004 -0.4897
19131SOL    HW258835   6.989   3.010   0.368 -0.7344 -0.5681  0.7547
19132SOL     OW58836   3.747   1.813   2.111 -0.2333  0.1031  0.4291
19132SOL    HW158837   3.816   1.747   2.112 -1.3706 -1.1215  1.2648
19132SOL    HW258838   3.788   1.891   2.074  1.6753 -0.4960  1.2033
19133SOL     OW58839   5.832   2.285   0.978  0.3826 -0.3137 -0.1815
19133SOL    HW158840   5.832   2.220   0.908  1.2307 -1.6500  1.0139
19133SOL    HW258841   5.784   2.359   0.942 -0.2393 -1.4324 -1.7414
19134SOL     OW58842   7.282   4.251   2.205  0.5088 -0.8661  0.2877
19134SOL    HW158843   7.282   4.156   2.192 -0.0294 -0.8471  0.1594
19134SOL    HW258844   7.201   4.282   2.166  1.6159 -0.0757 -1.5475
19135SOL     OW58845   7.218   3.376   0.526  0.1498  0.2459  0.1995
19135SOL    HW158846   7.251   3.296   0.484  0.8393 -0.5493  2.1578
19135SOL    HW258847   7.165   3.344   0.599 -1.7431  1.5783 -0.5155
19136SOL     OW58848   6.751   4.233   0.351  0.3899  0.0126  0.1201
19136SOL    HW158849   6.771   4.148   0.390  0.3343  0.0673  0.2665
19136SOL    HW258850   6.657   4.229   0.332  0.5351 -0.2425 -0.5648
19137SOL     OW58851   6.968   2.718   0.294 -0.4556  0.4135 -0.1229
19137SOL    HW158852   7.040   2.660   0.321 -1.5002  0.7030  3.9998
19137SOL    HW258853   6.916   2.666   0.233  2.4748 -0.2328 -2.2776
19138SOL     OW58854   6.052   1.900   0.017 -0.0004  0.0060 -0.0536
19138SOL    HW158855   6.054   1.985   0.061 -2.2157  0.0173  0.1436
19138SOL    HW258856   5.979   1.907  -0.046  0.1455 -1.5456 -0.4398
19139SOL     OW58857   7.236   3.070  10.675  0.4226 -0.4321 -0.4068
19139SOL    HW158858   7.226   3.111  10.762  0.8537  0.0885 -0.5946
19139SOL    HW258859   7.183   2.991  10.680 -1.4484  0.7608 -0.4305
19140SOL     OW58860   4.894   1.921   2.606 -0.6532  0.0854  0.7221
19140SOL    HW158861   4.870   1.964   2.688  0.1991  1.9967  0.0365
19140SOL    HW258862   4.858   1.977   2.537  1.1044  0.1374 -0.2245
19141SOL     OW58863   6.300   2.021   0.376 -0.4061 -0.1140  0.0107
19141SOL    HW158864   6.359   1.975   0.435 -0.9669  0.3412  0.9412
19141SOL    HW258865   6.256   2.086   0.431  0.5846  1.7842 -1.3028
19142SOL     OW58866   0.021   1.564   1.250  0.5681 -0.0850  0.1500
19142SOL    HW158867  -0.015   1.636   1.198  0.7985  1.1715  1.6358
19142SOL    HW258868   0.068   1.509   1.187  0.1346  0.9000 -1.0701
19143SOL     OW58869   5.891   2.279   0.076 -0.0758 -0.3315 -0.4742
19143SOL    HW158870   5.940   2.225   0.138  1.4191  0.1703 -1.1772
19143SOL    HW258871   5.815   2.225   0.052 -0.8090 -0.4616  1.8998
19144SOL     OW58872   7.598   3.310   1.322 -0.1781  0.0133  0.3721
19144SOL    HW158873   7.623   3.283   1.234  2.3323  0.9641  0.7092
19144SOL    HW258874   7.635   3.242   1.379 -0.2340  0.3302  0.7913
19145SOL     OW58875   6.963   3.746   2.533 -0.5045  0.4715 -0.2603
19145SOL    HW158876   6.884   3.798   2.547  0.1121  1.8604 -1.6397
19145SOL    HW258877   7.035   3.807   2.546  0.3382 -0.6057  0.3008
19146SOL     OW58878   5.678   1.516  12.266 -0.7244  0.6198 -0.6235
19146SOL    HW158879   5.712   1.428  12.283  0.9488  1.2136 -0.8042
19146SOL    HW258880   5.667   1.519  12.171 -0.6970  0.6525 -0.6256
19147SOL     OW58881   6.148   2.370   1.003 -0.0964  0.4730  0.6190
19147SOL    HW158882   6.074   2.324   1.043 -0.4280  1.1792  0.8243
19147SOL    HW258883   6.137   2.461   1.029  0.0383  0.8423 -0.5381
19148SOL     OW58884   0.360   2.882  12.247  0.0769  0.1705 -0.0492
19148SOL    HW158885   0.433   2.836  12.204  0.1200 -0.2959  0.5033
19148SOL    HW258886   0.289   2.880  12.183  0.7898  1.3440 -0.9134
19149SOL     OW58887   7.111   1.015   0.995 -0.3311  0.1078 -0.0187
19149SOL    HW158888   7.152   1.055   1.071  0.5063  0.1098 -0.4581
19149SOL    HW258889   7.102   0.922   1.017  1.6056 -0.2557 -0.6013
19150SOL     OW58890   5.358   3.434   0.479 -0.5685  0.1693 -0.6082
19150SOL    HW158891   5.445   3.395   0.472  0.3352  1.9966 -0.0649
19150SOL    HW258892   5.341   3.472   0.393 -1.0389 -0.5354 -0.8410
19151SOL     OW58893   7.611   1.951  11.871 -0.4300  0.5162  0.2641
19151SOL    HW158894   7.582   2.012  11.939 -1.9923  1.5276 -1.2209
19151SOL    HW258895   7.705   1.964  11.866 -0.3794  0.8866  1.7773
19152SOL     OW58896   7.962   3.035   1.577  0.2826  0.2481 -0.4734
19152SOL    HW158897   7.879   3.079   1.560  0.6077  0.6961 -0.9308
19152SOL    HW258898   7.953   2.950   1.534  0.1752  0.4135 -0.7825
19153SOL     OW58899   0.039   2.463  12.278  0.9004 -0.5161 -0.3514
19153SOL    HW158900  -0.005   2.417  12.350 -0.5438  1.3250  0.0213
19153SOL    HW258901   0.117   2.501  12.317 -0.0277  0.7252  0.3792
19154SOL     OW58902   7.287   3.353  12.068 -0.2625  0.4577 -0.7913
19154SOL    HW158903   7.269   3.411  11.994 -1.2681  0.4937 -0.5396
19154SOL    HW258904   7.250   3.269  12.043 -3.0252  1.1025  0.6436
19155SOL     OW58905   6.922   2.545   1.197 -0.3828 -0.0590  0.0972
19155SOL    HW158906   6.838   2.499   1.198  0.0240 -0.8441  2.0989
19155SOL    HW258907   6.988   2.476   1.200  0.2813  0.5793  0.5831
19156SOL     OW58908   7.261   3.059   0.974 -0.2353 -0.2438 -0.1956
19156SOL    HW158909   7.274   2.973   0.935 -0.7398 -1.1596  1.5236
19156SOL    HW258910   7.328   3.114   0.935 -0.8129 -1.0157 -2.4239
19157SOL     OW58911   5.142   3.468   1.122 -0.1317  0.4805  0.2769
19157SOL    HW158912   5.213   3.407   1.142 -2.2897 -2.0072  1.0177
19157SOL    HW258913   5.090   3.423   1.056 -1.1690  2.0897 -0.0531
19158SOL     OW58914   7.550   1.076  10.602 -0.1609 -0.1986 -0.4424
19158SOL    HW158915   7.553   1.138  10.674  0.5425 -0.6764 -0.0421
19158SOL    HW258916   7.501   1.001  10.636  0.8120 -0.7405 -0.1825
19159SOL     OW58917   7.094   2.484  12.229 -0.2724  0.0798 -0.1240
19159SOL    HW158918   7.172   2.458  12.278  0.9636  1.3251 -1.3226
19159SOL    HW258919   7.060   2.560  12.276 -1.3445 -1.0012  0.9160
19160SOL     OW58920   6.324   3.627   0.564 -0.4404 -0.1545 -0.0987
19160SOL    HW158921   6.239   3.599   0.597 -0.6321  0.0585 -0.4136
19160SOL    HW258922   6.342   3.569   0.490 -1.7762  1.8058 -2.0758
19161SOL     OW58923   5.954   2.605   0.445  0.0608  0.5390 -0.3222
19161SOL    HW158924   6.037   2.641   0.474 -0.1898  0.9621 -0.1167
19161SOL    HW258925   5.953   2.619   0.351  1.2407 -1.5794 -0.7014
19162SOL     OW58926   4.767   1.839   0.444 -0.2074 -0.4106 -0.2510
19162SOL    HW158927   4.727   1.905   0.387  1.9798  0.7928 -0.4879
19162SOL    HW258928   4.731   1.858   0.531  0.0327  0.8027 -0.3957
19163SOL     OW58929   7.657   2.653   1.297 -0.4868  0.6393 -0.5458
19163SOL    HW158930   7.597   2.727   1.311 -1.2950 -0.2780  1.2390
19163SOL    HW258931   7.647   2.632   1.204 -2.3931  1.0111 -0.4853
19164SOL     OW58932   6.298   2.599   2.592  0.6469 -0.4468  0.4012
19164SOL    HW158933   6.285   2.507   2.616 -0.1294 -0.9933 -1.9042
19164SOL    HW258934   6.322   2.597   2.500  0.1193  1.6947  0.1661
19165SOL     OW58935   5.122   4.511  12.339 -0.1862  0.7273  0.3917
19165SOL    HW158936   5.038   4.520  12.294  0.4732  1.0629 -0.8395
19165SOL    HW258937   5.132   4.593  12.388  0.1634  1.4264 -0.8113
19166SOL     OW58938   5.180   3.846   1.492  0.0235 -0.7110 -0.5519
19166SOL    HW158939   5.194   3.805   1.407 -0.0787 -1.0281 -0.4174
19166SOL    HW258940   5.207   3.937   1.480  1.0098 -1.0067 -0.6374
19167SOL     OW58941   7.495   3.850   0.789  0.2155 -0.3557 -0.5209
19167SOL    HW158942   7.419   3.834   0.733 -0.9338 -1.1070  1.1668
19167SOL    HW258943   7.553   3.904   0.736 -0.5864 -1.4134 -2.5893
19168SOL     OW58944   6.223   2.599   1.956  0.0921  0.1564 -0.7947
19168SOL    HW158945   6.204   2.636   2.042  0.5593  0.0832 -0.6535
19168SOL    HW258946   6.148   2.544   1.936 -0.3972  0.8047 -0.7965
19169SOL     OW58947   4.767   3.319   1.362  0.1026 -0.7496  0.1245
19169SOL    HW158948   4.713   3.335   1.439  1.0510 -2.6929  1.2659
19169SOL    HW258949   4.854   3.349   1.388  0.3893 -1.2508 -0.2447
19170SOL     OW58950   6.973   3.700   1.203 -0.7446 -0.1388  0.2427
19170SOL    HW158951   6.903   3.741   1.151 -0.8536  0.7751  1.0919
19170SOL    HW258952   7.036   3.771   1.218  0.9189 -1.1765 -1.3716
19171SOL     OW58953   6.362   2.069   0.085  0.1929 -0.5342  0.4449
19171SOL    HW158954   6.318   2.060   0.169 -0.3746 -0.2231  0.1875
19171SOL    HW258955   6.421   1.993   0.080  0.2439 -0.5419  1.1229
19172SOL     OW58956   6.689   1.297   1.270 -0.4813  0.2493  0.2930
19172SOL    HW158957   6.721   1.335   1.351  0.2179 -1.9322  1.1135
19172SOL    HW258958   6.758   1.236   1.243 -1.3678 -0.1820 -1.1223
19173SOL     OW58959   5.062   4.106   2.664  0.2262  0.6939  0.6061
19173SOL    HW158960   4.973   4.130   2.638  0.2291 -0.8173 -1.0121
19173SOL    HW258961   5.064   4.117   2.759 -1.8721  0.2002  0.7507
19174SOL     OW58962   4.920   1.667   1.038 -0.2461  0.1240 -0.3003
19174SOL    HW158963   4.938   1.712   0.955  0.6730 -1.0192 -0.7539
19174SOL    HW258964   4.886   1.735   1.095 -1.0288  0.9138 -1.6545
19175SOL     OW58965   7.118   2.427   1.823 -0.2900  0.0189  0.4960
19175SOL    HW158966   7.183   2.366   1.856  2.1727  1.9698 -0.4280
19175SOL    HW258967   7.115   2.497   1.889  1.5881  1.8857 -1.2808
19176SOL     OW58968   6.528   0.806  11.328  0.0186 -0.2662 -0.5526
19176SOL    HW158969   6.434   0.825  11.320 -0.0090 -0.2366 -0.1715
19176SOL    HW258970   6.540   0.787  11.421  0.5182  0.4144 -0.4729
19177SOL     OW58971   4.668   4.110  12.336 -0.3967 -0.6521  0.6759
19177SOL    HW158972   4.662   4.099  12.242 -1.8012 -2.1047  0.8838
19177SOL    HW258973   4.747   4.063  12.361  0.2857  0.2142  0.1754
19178SOL     OW58974   6.403   2.663   0.981  0.6025  0.4189  0.3032
19178SOL    HW158975   6.396   2.758   0.995 -1.2947  0.6461 -1.5378
19178SOL    HW258976   6.367   2.650   0.893  1.8321 -1.9166  0.0719
19179SOL     OW58977   0.430   1.321   1.589  0.2090 -0.0472  0.2826
19179SOL    HW158978   0.419   1.310   1.683 -0.3045  2.0287  0.5097
19179SOL    HW258979   0.503   1.382   1.581 -0.5203  0.7249 -0.6254
19180SOL     OW58980   6.267   5.181   0.087 -0.1818 -0.0974  0.5156
19180SOL    HW158981   6.230   5.116   0.028 -0.3329  0.7289 -0.3274
19180SOL    HW258982   6.355   5.148   0.107 -1.1759 -1.8897  2.2402
19181SOL     OW58983   7.870   4.302   0.959 -0.5125  0.7988 -0.2129
19181SOL    HW158984   7.801   4.236   0.971 -0.3838  0.9110  1.4428
19181SOL    HW258985   7.924   4.294   1.038  1.4613  0.6434 -1.4991
19182SOL     OW58986   5.590   3.726   2.482  0.0555 -0.0805 -0.3842
19182SOL    HW158987   5.594   3.745   2.575 -2.1301 -0.1799 -0.2164
19182SOL    HW258988   5.575   3.811   2.440  3.0242  0.2934 -0.9183
19183SOL     OW58989   4.782   4.116   2.617  0.0553  0.2691  0.5751
19183SOL    HW158990   4.801   4.045   2.678  0.9584  0.1869  0.2200
19183SOL    HW258991   4.688   4.128   2.622 -0.0519 -0.6616  0.9665
19184SOL     OW58992   0.117   2.903  11.854  0.0292 -0.0520 -0.7941
19184SOL    HW158993   0.093   2.856  11.774  1.2572  1.7550 -2.2990
19184SOL    HW258994   0.141   2.990  11.824 -1.6303  1.4186  1.8355
19185SOL     OW58995   7.250   1.665   0.151 -0.0922  0.6541 -0.0313
19185SOL    HW158996   7.272   1.653   0.059  1.2625  1.0029  0.2313
19185SOL    HW258997   7.175   1.725   0.150  0.7620  1.7526 -0.8736
19186SOL     OW58998   7.778   2.190   3.337  0.0799  0.5079  0.3675
19186SOL    HW158999   7.805   2.124   3.402  0.5570  1.2067  0.8890
19186SOL    HW259000   7.705   2.149   3.291 -0.8441  0.3240  1.9226
19187SOL     OW59001   6.027   3.690   0.027  0.0086 -0.1096  0.2159
19187SOL    HW159002   6.094   3.683  -0.041  1.7924 -4.3703  2.0409
19187SOL    HW259003   5.947   3.659  -0.016  0.9895 -2.2431 -0.2104
19188SOL     OW59004   5.745   3.056  10.893 -0.4428  0.1931  0.5431
19188SOL    HW159005   5.693   3.129  10.860 -1.0211 -1.3205 -2.1971
19188SOL    HW259006   5.771   3.008  10.815  0.7832 -1.9727  2.1733
19189SOL     OW59007   7.563   3.834   2.607 -0.1246 -0.3121  0.3429
19189SOL    HW159008   7.578   3.889   2.531  0.8023 -1.8712 -0.6524
19189SOL    HW259009   7.600   3.884   2.680 -2.6894  2.0644  0.1983
19190SOL     OW59010   7.359   2.980  11.194  0.6717 -0.2456  0.1023
19190SOL    HW159011   7.364   2.950  11.103  0.5640 -0.3648  0.1353
19190SOL    HW259012   7.414   3.058  11.197  0.4365 -0.0648 -0.1367
19191SOL     OW59013   7.585   3.269   0.519 -0.4081 -0.3123  0.2158
19191SOL    HW159014   7.519   3.222   0.469  0.6052 -0.8072 -0.6976
19191SOL    HW259015   7.599   3.215   0.597  0.2672 -1.2094 -0.5054
19192SOL     OW59016   7.652   1.831   1.352  0.3621  0.2300  0.6470
19192SOL    HW159017   7.712   1.790   1.414  0.3619  0.7831  1.0125
19192SOL    HW259018   7.649   1.923   1.378  0.0545  0.3859  0.0732
19193SOL     OW59019   7.108   1.165   0.376 -0.0213 -0.2937  0.0250
19193SOL    HW159020   7.124   1.132   0.288 -1.5447 -0.5812 -0.1655
19193SOL    HW259021   7.186   1.216   0.397  0.3054 -0.1105 -1.5354
19194SOL     OW59022   7.637   0.848   1.143 -0.6602 -0.5762  0.1154
19194SOL    HW159023   7.632   0.828   1.237 -3.7568  0.5133  0.3106
19194SOL    HW259024   7.558   0.899   1.126  1.9384  3.1675 -2.2113
19195SOL     OW59025   5.518   1.219   1.518  0.4336 -0.1464 -0.0482
19195SOL    HW159026   5.435   1.187   1.553  0.9109  0.0686  1.3413
19195SOL    HW259027   5.493   1.280   1.449 -0.5709 -0.1076  0.3333
19196SOL     OW59028   5.540   3.828  12.481 -0.0672 -0.6344 -0.0330
19196SOL    HW159029   5.458   3.829  12.432 -0.4145 -1.8528  0.4877
19196SOL    HW259030   5.533   3.752  12.539  0.1869  0.9507  2.1858
19197SOL     OW59031   6.024   4.925   1.398 -0.0979  0.7382 -0.1581
19197SOL    HW159032   5.997   4.971   1.319 -2.0810 -0.0866 -0.0213
19197SOL    HW259033   5.965   4.850   1.403  1.5037 -0.5162  0.8742
19198SOL     OW59034   4.201   4.301  12.336 -0.0647  0.0005  0.5092
19198SOL    HW159035   4.146   4.241  12.388  1.5680  1.0699  3.6864
19198SOL    HW259036   4.290   4.284  12.366  1.0196  0.7925 -1.9806
19199SOL     OW59037   0.279   3.305   1.731  0.1913  0.0393 -0.1642
19199SOL    HW159038   0.344   3.295   1.661 -0.4535 -2.5384 -0.5214
19199SOL    HW259039   0.238   3.218   1.738 -1.8762  1.0399  1.3611
19200SOL     OW59040   7.100   2.804   1.722  0.1360 -0.3251 -0.5292
19200SOL    HW159041   7.181   2.821   1.674  0.5654  1.3228  0.6609
19200SOL    HW259042   7.124   2.814   1.814 -1.7477  2.1796 -0.1898
19201SOL     OW59043   6.916   2.251   0.820 -0.0161  0.2387  0.5110
19201SOL    HW159044   6.933   2.158   0.803 -1.2812  0.0350  0.2410
19201SOL    HW259045   6.821   2.257   0.824  0.0590  1.5059  0.7074
19202SOL     OW59046   3.978   1.450  11.495 -0.6696 -0.4450 -0.2490
19202SOL    HW159047   4.002   1.536  11.531  0.7912 -0.5930 -0.7603
19202SOL    HW259048   4.026   1.446  11.412  0.0993 -2.1559  0.2415
19203SOL     OW59049   0.362   1.392   2.444 -0.3021 -0.2868  0.4096
19203SOL    HW159050   0.458   1.388   2.449 -0.1885  2.3014  1.5861
19203SOL    HW259051   0.332   1.324   2.503  0.8639  0.4414  1.9029
19204SOL     OW59052   6.223   3.711  12.350  0.4403  0.3413 -0.0015
19204SOL    HW159053   6.298   3.660  12.383 -1.0287 -1.5406  0.5835
19204SOL    HW259054   6.245   3.728  12.258  0.7063 -2.0299 -0.4438
19205SOL     OW59055   6.384   3.374   1.780 -0.2277 -0.1743 -0.1468
19205SOL    HW159056   6.440   3.352   1.706  0.1716  1.2775 -0.3183
19205SOL    HW259057   6.327   3.298   1.791  1.3007 -1.4147 -0.4024
19206SOL     OW59058   5.610   0.488   0.258 -0.7769  0.5029 -0.3703
19206SOL    HW159059   5.554   0.566   0.261 -1.4508  0.0173  0.3251
19206SOL    HW259060   5.554   0.421   0.217 -1.1701 -0.3185  1.4029
19207SOL     OW59061   7.362   2.632   0.944 -0.1462 -0.0577  0.0394
19207SOL    HW159062   7.332   2.542   0.928 -0.6813 -0.2568  1.9029
19207SOL    HW259063   7.457   2.626   0.943 -0.1731 -0.4419 -0.8547
19208SOL     OW59064   6.289   1.449   0.630 -0.0799  0.1100  0.3060
19208SOL    HW159065   6.196   1.433   0.647 -0.0658 -0.5482 -0.2025
19208SOL    HW259066   6.327   1.362   0.621  0.4351  0.3933 -0.3287
19209SOL     OW59067   7.466   1.669   0.315 -0.1708  0.2655 -0.4239
19209SOL    HW159068   7.397   1.678   0.249 -0.6577 -1.9604 -0.3044
19209SOL    HW259069   7.425   1.699   0.396 -0.8339 -0.4798 -0.4689
19210SOL     OW59070   4.949   0.941   0.189 -0.0284 -0.5307 -0.0719
19210SOL    HW159071   4.864   0.897   0.195 -0.5414  0.2436 -1.2804
19210SOL    HW259072   4.941   1.017   0.246 -0.0148 -0.6526  0.0937
19211SOL     OW59073   1.909   4.811   1.391 -0.2198  0.0715  0.6717
19211SOL    HW159074   1.894   4.754   1.467 -1.8297  0.0624  0.3758
19211SOL    HW259075   1.979   4.871   1.420  1.7584 -2.1774  0.8792
19212SOL     OW59076   7.064   2.494   2.395 -0.0995  0.2436 -0.3108
19212SOL    HW159077   7.126   2.563   2.420 -1.7270  1.1909  1.3473
19212SOL    HW259078   7.078   2.424   2.458  0.6883 -0.4312 -1.2200
19213SOL     OW59079   7.233   2.586   0.321 -0.2150 -0.3614  0.0165
19213SOL    HW159080   7.246   2.660   0.262 -0.4033 -0.0534  0.3564
19213SOL    HW259081   7.256   2.509   0.269 -2.0623 -0.2596 -1.0647
19214SOL     OW59082   5.620   3.643   0.389  0.4399 -0.3991 -0.2607
19214SOL    HW159083   5.586   3.573   0.445  1.0186 -0.8646 -0.4812
19214SOL    HW259084   5.690   3.682   0.441 -0.0651  0.2122 -0.0232
19215SOL     OW59085   0.584   3.569   1.644  0.4225 -0.0503  0.2273
19215SOL    HW159086   0.646   3.642   1.654  1.8497 -0.9147 -1.8485
19215SOL    HW259087   0.631   3.493   1.677  0.1346 -0.5665 -0.5412
19216SOL     OW59088   6.110   2.936   0.953 -0.0755 -0.1070  0.1933
19216SOL    HW159089   6.205   2.942   0.952 -0.1439  1.7953  0.6912
19216SOL    HW259090   6.083   2.988   1.029 -1.5420  0.5898 -0.7444
19217SOL     OW59091   7.170   2.771   1.095 -0.2037 -0.2437 -0.2642
19217SOL    HW159092   7.241   2.749   1.035  0.5205  0.1042  0.4361
19217SOL    HW259093   7.191   2.724   1.176  0.4415  1.5493  0.6826
19218SOL     OW59094   7.298   5.128   1.707  0.0368 -0.3286  0.2880
19218SOL    HW159095   7.226   5.185   1.734  0.8349  0.8176  0.0357
19218SOL    HW259096   7.312   5.070   1.782 -0.7564 -0.1801  0.5581
19219SOL     OW59097   6.194   2.468  11.462 -0.2283 -0.2085  0.0197
19219SOL    HW159098   6.230   2.546  11.505  0.3886  0.1062 -1.0268
19219SOL    HW259099   6.229   2.472  11.373 -2.2560 -0.3026 -0.8329
19220SOL     OW59100   6.078   3.528   0.412 -0.0620  0.2019  0.3788
19220SOL    HW159101   6.065   3.579   0.491  1.2361 -0.5499  1.1121
19220SOL    HW259102   6.102   3.592   0.345 -2.4266  1.0111  0.1916
19221SOL     OW59103   5.607   0.969   0.970  0.3267  0.5072 -0.4813
19221SOL    HW159104   5.691   0.955   1.015  0.1748 -1.5475 -0.7607
19221SOL    HW259105   5.617   0.925   0.886 -0.6115  1.3428 -1.0472
19222SOL     OW59106   7.662   3.106  11.751 -0.0353  0.1917  0.0269
19222SOL    HW159107   7.713   3.148  11.682 -0.1433 -0.5771 -0.5382
19222SOL    HW259108   7.722   3.099  11.825  0.7381 -0.8435 -0.6788
19223SOL     OW59109   0.295   2.667  11.710 -0.0114  0.2140  0.3515
19223SOL    HW159110   0.343   2.601  11.661  0.4760 -0.3061  1.5040
19223SOL    HW259111   0.233   2.703  11.647  1.8178  0.8724 -1.1667
19224SOL     OW59112   6.082   1.889   1.370 -0.0500  0.3754  0.4149
19224SOL    HW159113   6.013   1.822   1.373 -1.6369  1.8032 -1.5887
19224SOL    HW259114   6.164   1.839   1.362 -1.0024 -1.3376  0.8203
19225SOL     OW59115   6.682   3.271  12.294  0.2331 -0.1253 -0.4825
19225SOL    HW159116   6.731   3.329  12.353  1.7407 -0.5781 -1.2416
19225SOL    HW259117   6.650   3.201  12.352 -1.6295  1.4114  0.4462
19226SOL     OW59118   7.626   3.030   0.685  0.2486  0.0053  0.5761
19226SOL    HW159119   7.709   3.045   0.732 -0.2293 -1.1402  1.8808
19226SOL    HW259120   7.584   2.958   0.734 -1.4465  0.4590 -0.1430
19227SOL     OW59121   6.456   1.886   0.538  0.3681 -0.2860 -0.2866
19227SOL    HW159122   6.469   1.791   0.542 -0.3621 -0.3836 -0.0878
19227SOL    HW259123   6.447   1.912   0.630 -0.7691 -0.2196 -0.4150
19228SOL     OW59124   7.287   2.091   0.322  0.2138  0.4232 -0.2236
19228SOL    HW159125   7.356   2.053   0.376  0.1735 -0.5527 -0.8362
19228SOL    HW259126   7.206   2.051   0.354  0.2283 -0.4256 -1.2222
19229SOL     OW59127   7.735   2.920  12.250 -0.3559 -0.7871  0.5686
19229SOL    HW159128   7.729   2.836  12.295 -1.3698 -0.5921  0.8291
19229SOL    HW259129   7.669   2.914  12.181 -0.5803 -0.1325  0.7202
19230SOL     OW59130   5.764   1.851   2.074 -0.1316  0.3740  0.4963
19230SOL    HW159131   5.842   1.867   2.021 -0.5227 -0.2664 -0.2992
19230SOL    HW259132   5.780   1.898   2.156  0.7474  0.8869  0.0429
19231SOL     OW59133   7.437   3.794   2.035  0.1614 -0.2563  0.0469
19231SOL    HW159134   7.347   3.807   2.063  0.6019  1.4085  0.8425
19231SOL    HW259135   7.485   3.866   2.076  1.7290 -0.6864 -0.9481
19232SOL     OW59136   7.402   2.263   1.869  0.3701  0.6118  0.3891
19232SOL    HW159137   7.418   2.348   1.827  0.5171  0.8354  0.8922
19232SOL    HW259138   7.483   2.213   1.853 -0.7543 -0.5171 -2.4214
19233SOL     OW59139   6.130   3.245   1.805 -0.3026  0.1883 -0.1568
19233SOL    HW159140   6.091   3.320   1.761  0.7250  2.0196  1.8692
19233SOL    HW259141   6.066   3.219   1.871 -0.6889 -0.8372 -0.8958
19234SOL     OW59142   7.262   3.726   1.698 -0.3198  0.1193 -0.3429
19234SOL    HW159143   7.221   3.756   1.779 -0.1104  0.4336 -0.3475
19234SOL    HW259144   7.349   3.766   1.700 -0.8152  1.3445 -1.4067
19235SOL     OW59145   5.811   2.438   0.578  0.3992  0.8519  0.5949
19235SOL    HW159146   5.863   2.424   0.657 -0.7112  0.8127  1.3397
19235SOL    HW259147   5.858   2.505   0.529  1.3037  0.5952  1.1013
19236SOL     OW59148   5.418   2.803   1.140  0.6163 -0.3416  0.6780
19236SOL    HW159149   5.419   2.877   1.200 -1.1903  0.7760 -0.5625
19236SOL    HW259150   5.437   2.727   1.195  2.7582  1.0050  1.9505
19237SOL     OW59151   7.118   3.692  12.338 -0.0530 -0.3701  0.8641
19237SOL    HW159152   7.097   3.600  12.354 -0.4515 -0.5758 -0.6549
19237SOL    HW259153   7.204   3.690  12.296 -1.0438 -0.2794 -1.2919
19238SOL     OW59154   7.138   3.661   2.842  0.3625  0.0421 -0.1860
19238SOL    HW159155   7.138   3.705   2.757  2.1596  0.8260  0.1681
19238SOL    HW259156   7.144   3.568   2.821 -1.8965  0.0097 -0.9197
19239SOL     OW59157   5.357   3.284   1.939  0.1597  0.0752  0.4721
19239SOL    HW159158   5.287   3.318   1.994  1.2317  1.5450  0.9706
19239SOL    HW259159   5.437   3.298   1.989  0.8704 -1.3445 -0.1882
19240SOL     OW59160   6.632   2.268   0.841 -0.2249 -0.6277 -0.4230
19240SOL    HW159161   6.626   2.197   0.778 -2.9041 -2.0243  1.2116
19240SOL    HW259162   6.548   2.313   0.835 -0.0321  0.0206  1.1890
19241SOL     OW59163   5.223   1.815   2.288  0.3871 -0.6975  0.6526
19241SOL    HW159164   5.305   1.863   2.301 -0.6616  1.5764 -0.4630
19241SOL    HW259165   5.239   1.759   2.213  0.5720  0.7799 -0.4625
19242SOL     OW59166   6.174   2.266   3.480 -0.3305  0.4208  0.0486
19242SOL    HW159167   6.135   2.353   3.485  0.9611  1.0811 -0.6700
19242SOL    HW259168   6.269   2.283   3.484 -0.0807 -1.0339  0.9608
19243SOL     OW59169   5.612   1.707   4.655 -0.3394  0.3959 -0.0292
19243SOL    HW159170   5.620   1.718   4.560 -0.4606  1.0778  0.0370
19243SOL    HW259171   5.692   1.746   4.690  0.3804 -1.1144  0.0769
19244SOL     OW59172   5.910   2.434   3.761  0.6215 -0.9941 -0.2585
19244SOL    HW159173   5.983   2.487   3.729  0.3485 -1.2055 -1.2580
19244SOL    HW259174   5.934   2.413   3.851 -0.4816  3.0574  1.1853
19245SOL     OW59175   7.481   5.075   2.039 -0.2847 -0.4530 -0.1594
19245SOL    HW159176   7.483   5.170   2.027  0.7733 -0.5175 -0.6221
19245SOL    HW259177   7.520   5.060   2.125 -0.1665 -0.4813 -0.2172
19246SOL     OW59178   5.518   2.478   2.750  0.0489  0.0494  0.0780
19246SOL    HW159179   5.479   2.509   2.669  0.8486  2.8778  0.6818
19246SOL    HW259180   5.610   2.462   2.728  0.1724  0.4157  0.3210
19247SOL     OW59181   6.288   1.261   2.553 -0.2535 -0.0970 -0.4850
19247SOL    HW159182   6.286   1.323   2.626 -2.5477  0.5229 -0.9951
19247SOL    HW259183   6.307   1.177   2.594  1.3430  0.6534  0.4168
19248SOL     OW59184   4.828   2.016   0.076 -0.6729  0.1166 -0.0279
19248SOL    HW159185   4.742   1.991   0.042 -0.4161  0.1316 -0.7072
19248SOL    HW259186   4.889   1.990   0.008 -0.2310  1.0073  0.0082
19249SOL     OW59187   6.027   4.041   4.981  0.3913  0.0922 -0.1203
19249SOL    HW159188   6.035   3.952   5.015  0.0143  0.3824  0.7719
19249SOL    HW259189   6.009   4.094   5.059 -0.9571  0.7251 -0.8278
19250SOL     OW59190   5.242   4.808   0.882 -0.3329 -0.6456 -0.2668
19250SOL    HW159191   5.336   4.818   0.890 -0.5933  0.6185  2.7597
19250SOL    HW259192   5.213   4.884   0.832 -0.0697  1.8807  3.0574
19251SOL     OW59193   6.284   4.049   2.367  0.2336  0.3358  0.2231
19251SOL    HW159194   6.348   4.064   2.297 -1.1038 -1.5086 -1.5077
19251SOL    HW259195   6.199   4.071   2.328 -0.5246 -0.3553  1.4044
19252SOL     OW59196   4.525   2.330   2.471  0.1518 -0.1521  0.0124
19252SOL    HW159197   4.612   2.358   2.444  1.4129 -1.3373  2.5433
19252SOL    HW259198   4.470   2.347   2.395  2.2139  2.2464 -1.1099
19253SOL     OW59199   6.515   4.000   1.329  0.2942  0.3996 -0.1525
19253SOL    HW159200   6.510   3.944   1.251  1.2785 -0.0843  0.1139
19253SOL    HW259201   6.553   3.944   1.396  2.0084  1.5709 -0.0728
19254SOL     OW59202   6.712   2.527   3.065  0.2454  0.0719 -0.2054
19254SOL    HW159203   6.723   2.526   2.969  0.9123  0.7128 -0.1503
19254SOL    HW259204   6.686   2.617   3.084 -0.0080 -0.0894  0.2083
19255SOL     OW59205   5.750   4.100   2.129  0.3457  0.0916 -0.0080
19255SOL    HW159206   5.763   4.005   2.136  1.5366  0.1738 -0.8408
19255SOL    HW259207   5.656   4.112   2.143  0.3820 -1.0657  1.4304
19256SOL     OW59208   5.054   2.661   1.209  0.0771  0.2649 -0.3818
19256SOL    HW159209   5.012   2.611   1.279 -0.3815  0.8253 -0.2422
19256SOL    HW259210   4.983   2.716   1.174  0.1768 -0.3577 -1.6148
19257SOL     OW59211   1.144   4.683   3.148  0.1185 -0.0783 -0.0488
19257SOL    HW159212   1.137   4.588   3.155  1.7388 -0.2409 -0.2387
19257SOL    HW259213   1.214   4.707   3.209  0.6380  0.8132 -0.9396
19258SOL     OW59214   5.762   2.300   3.588 -0.1810 -0.2446 -1.3782
19258SOL    HW159215   5.822   2.323   3.660 -0.8874  1.1100 -1.1717
19258SOL    HW259216   5.683   2.351   3.607 -0.4068  0.0901 -3.0871
19259SOL     OW59217   6.844   3.785   2.193  0.5938 -1.1559 -0.5579
19259SOL    HW159218   6.896   3.707   2.213  1.7348 -1.0240 -2.7191
19259SOL    HW259219   6.798   3.763   2.112  2.0413  0.8537 -2.0131
19260SOL     OW59220   5.547   1.916   1.865 -0.0208  0.0353 -0.1811
19260SOL    HW159221   5.617   1.880   1.919  0.7253  1.9749  0.2500
19260SOL    HW259222   5.527   1.848   1.801  2.6386 -0.3690 -0.6641
19261SOL     OW59223   7.421   3.065  12.299  0.2729  0.5472 -0.5779
19261SOL    HW159224   7.410   2.971  12.289 -1.3869  0.5786  0.5612
19261SOL    HW259225   7.438   3.096  12.210  1.0571 -0.8360 -0.9365
19262SOL     OW59226   6.760   0.904   3.610  0.0808  0.6619  0.4889
19262SOL    HW159227   6.781   0.996   3.626  1.7212  0.6642 -1.2750
19262SOL    HW259228   6.790   0.888   3.521  1.0644 -1.9251  1.1909
19263SOL     OW59229   5.978   2.613   4.185  0.1429  0.0344 -0.2977
19263SOL    HW159230   5.933   2.665   4.252 -1.6733 -0.4155 -1.1029
19263SOL    HW259231   5.940   2.642   4.102 -0.0246 -1.6600 -0.8663
19264SOL     OW59232   7.956   5.129   2.098  0.1766  0.4132  0.3120
19264SOL    HW159233   8.000   5.050   2.129  0.6219  0.8727  0.8653
19264SOL    HW259234   7.868   5.099   2.075  0.5765 -0.3939 -0.2323
19265SOL     OW59235   5.867   3.495   2.215 -0.2690 -0.1624  0.9321
19265SOL    HW159236   5.913   3.566   2.170 -0.1223 -0.0015  1.3360
19265SOL    HW259237   5.932   3.424   2.219 -0.7631 -0.7480 -0.4785
19266SOL     OW59238   7.419   4.515   0.552  0.3009 -0.1808 -0.7349
19266SOL    HW159239   7.502   4.480   0.584  0.0148  0.5821  0.9479
19266SOL    HW259240   7.427   4.512   0.457  1.7920 -1.1842 -0.6097
19267SOL     OW59241   6.892   3.729   0.771 -0.0558  0.3987  0.7699
19267SOL    HW159242   6.856   3.782   0.700 -0.2192  0.6827  1.0664
19267SOL    HW259243   6.985   3.720   0.748  0.3897  2.3001  1.5986
19268SOL     OW59244   6.064   2.966   4.266 -0.3778 -0.5185  0.0586
19268SOL    HW159245   6.129   3.035   4.276 -1.0340 -0.0452  1.4477
19268SOL    HW259246   6.107   2.899   4.214  1.2570 -0.2500  0.9967
19269SOL     OW59247   5.896   3.029   1.416  0.1742 -0.5816  0.1930
19269SOL    HW159248   5.928   3.111   1.454 -0.6801 -0.5032  0.7737
19269SOL    HW259249   5.811   3.052   1.378  2.3105  0.1941 -4.8920
19270SOL     OW59250   6.271   4.289   3.373  0.4883  0.0572 -0.0332
19270SOL    HW159251   6.205   4.250   3.429  0.9180  1.1875  1.3021
19270SOL    HW259252   6.222   4.346   3.313  0.0864 -0.6690 -0.4006
19271SOL     OW59253   6.529   1.225   0.454  0.5049 -0.3598 -0.0772
19271SOL    HW159254   6.596   1.291   0.440 -2.0551  2.4158 -0.1768
19271SOL    HW259255   6.509   1.191   0.367 -0.5328  1.3244 -0.5360
19272SOL     OW59256   5.030   3.703   3.555 -0.1798 -0.0329  0.2867
19272SOL    HW159257   5.063   3.638   3.493  1.0384 -1.2758  2.1261
19272SOL    HW259258   5.002   3.776   3.500 -0.6302 -1.6704 -1.8047
19273SOL     OW59259   5.992   1.102   0.800 -0.2381 -0.7383  0.0346
19273SOL    HW159260   6.082   1.103   0.766  0.0178  2.6646  0.4701
19273SOL    HW259261   5.995   1.043   0.875  2.0046  0.2441  0.8098
19274SOL     OW59262   6.620   4.689   2.119 -0.0614  0.0929  0.3763
19274SOL    HW159263   6.604   4.772   2.163  0.3218  1.3327 -1.6628
19274SOL    HW259264   6.573   4.697   2.036 -0.0253 -1.7536  0.1398
19275SOL     OW59265   6.316   0.802   4.993 -0.2181  0.4074  0.3050
19275SOL    HW159266   6.272   0.759   4.920 -1.5750  1.7157  0.2939
19275SOL    HW259267   6.295   0.895   4.982  0.3461  0.7457  1.8264
19276SOL     OW59268   6.576   4.016   2.789 -0.0964  0.5173 -0.4813
19276SOL    HW159269   6.624   3.937   2.811 -0.3582  0.2136 -0.9854
19276SOL    HW259270   6.516   4.030   2.863  1.5402  1.5538  0.7222
19277SOL     OW59271   6.590   2.793   1.619  0.1058 -0.4976 -0.6311
19277SOL    HW159272   6.595   2.705   1.657 -0.4321 -1.4336 -2.5800
19277SOL    HW259273   6.524   2.838   1.671 -0.6457 -1.7302 -0.4656
19278SOL     OW59274   4.749   3.120   2.598  0.1079  0.1173 -0.5929
19278SOL    HW159275   4.725   3.212   2.587 -1.6793 -0.2551 -0.1301
19278SOL    HW259276   4.816   3.121   2.666 -0.8842  0.9880  0.4160
19279SOL     OW59277   6.268   1.412   2.765  0.2046 -0.3056  0.1889
19279SOL    HW159278   6.224   1.497   2.760  2.1015  0.6755 -0.9913
19279SOL    HW259279   6.259   1.386   2.857 -1.8586  0.3316  0.2098
19280SOL     OW59280   6.406   3.573   1.951 -0.2782 -0.1347 -0.0334
19280SOL    HW159281   6.391   3.519   1.873 -0.7283  1.4009 -1.0490
19280SOL    HW259282   6.494   3.609   1.939 -0.4942  0.4026 -0.0198
19281SOL     OW59283   5.648   1.347   3.043 -0.2496 -0.0604 -0.2538
19281SOL    HW159284   5.638   1.324   2.951  2.4729 -0.1581 -0.6007
19281SOL    HW259285   5.620   1.269   3.091  0.3026 -0.7828 -1.0909
19282SOL     OW59286   5.749   2.708   4.382  0.4141  0.0687  0.0416
19282SOL    HW159287   5.760   2.780   4.320 -1.2372 -0.5899 -1.0798
19282SOL    HW259288   5.825   2.715   4.440  1.0181  1.8539 -0.8832
19283SOL     OW59289   6.062   2.268   4.713 -0.2119 -0.1137  0.5516
19283SOL    HW159290   6.074   2.175   4.731 -2.4764 -0.4695  0.5398
19283SOL    HW259291   6.013   2.301   4.789  0.5292  1.0895  0.5448
19284SOL     OW59292   5.488   2.667   4.449 -0.2059 -0.2465  0.1143
19284SOL    HW159293   5.568   2.701   4.410  0.1986 -0.8171  0.4338
19284SOL    HW259294   5.434   2.745   4.465 -0.6175 -0.0335 -2.0612
19285SOL     OW59295   5.956   3.172   0.043  0.2080  0.5838 -0.5674
19285SOL    HW159296   5.982   3.119   0.119  0.7107 -0.7832 -1.6490
19285SOL    HW259297   5.873   3.211   0.068  0.7920  0.8896  1.0250
19286SOL     OW59298   5.769   2.504   2.148 -0.1306  0.2399  0.5953
19286SOL    HW159299   5.801   2.458   2.226 -0.4782 -0.0416  0.5764
19286SOL    HW259300   5.735   2.587   2.182 -0.4772  0.0273  0.7762
19287SOL     OW59301   7.448   4.952   4.072 -0.1130  0.5299 -0.4882
19287SOL    HW159302   7.506   5.026   4.058 -0.3977  0.4230 -2.4145
19287SOL    HW259303   7.410   4.968   4.159  1.7110  1.2996  0.2251
19288SOL     OW59304   5.231   2.567   3.037  0.0281  0.5311 -0.4905
19288SOL    HW159305   5.321   2.566   3.006 -0.1139 -1.6515 -1.0320
19288SOL    HW259306   5.236   2.603   3.126  1.2124  1.7191 -1.0127
19289SOL     OW59307   2.593   3.745   3.252  0.2547 -0.4633 -0.3204
19289SOL    HW159308   2.602   3.756   3.347  0.6912  0.7793 -0.4822
19289SOL    HW259309   2.662   3.683   3.228 -0.1379 -1.1227  0.2205
19290SOL     OW59310   5.767   3.010   2.357 -0.0084  0.5268 -0.0648
19290SOL    HW159311   5.732   2.938   2.410 -1.1438  0.8140 -0.3975
19290SOL    HW259312   5.838   3.047   2.409 -0.1336 -0.1440  0.5860
19291SOL     OW59313   6.661   2.710   1.083 -0.0238  0.2283 -0.0184
19291SOL    HW159314   6.579   2.675   1.048 -0.6648 -0.3092  1.8993
19291SOL    HW259315   6.635   2.760   1.160  1.3381  1.2473 -0.1822
19292SOL     OW59316   5.144   3.469   3.672  0.0810  0.1737  0.0639
19292SOL    HW159317   5.094   3.547   3.647  1.6911  2.0122  2.1542
19292SOL    HW259318   5.227   3.478   3.625  0.9953  0.7910  1.7031
19293SOL     OW59319   6.352   5.364   2.254 -0.3798  0.2492  0.3263
19293SOL    HW159320   6.395   5.442   2.220  1.1086 -1.1176 -1.1350
19293SOL    HW259321   6.391   5.349   2.340  0.0636  0.5509  0.1753
19294SOL     OW59322   6.826   2.542   2.281 -0.5253 -0.2782 -0.0411
19294SOL    HW159323   6.824   2.537   2.185 -0.3399 -0.8673 -0.0186
19294SOL    HW259324   6.918   2.530   2.304 -0.4315  0.7473  0.1760
19295SOL     OW59325   6.799   4.429   1.929 -0.0276  0.2982 -0.1931
19295SOL    HW159326   6.788   4.510   1.879 -3.5257 -1.0130 -1.8720
19295SOL    HW259327   6.735   4.436   1.999  0.2129 -0.6827  0.1341
19296SOL     OW59328   6.809   4.001   0.511  0.3810 -0.2672 -0.4185
19296SOL    HW159329   6.767   3.991   0.596 -1.7887 -0.2435 -1.4070
19296SOL    HW259330   6.821   3.911   0.480  0.5448 -0.2617 -0.3714
19297SOL     OW59331   6.530   3.610   3.223  0.0934  0.4505 -0.0129
19297SOL    HW159332   6.461   3.622   3.158  2.2756  0.3530 -2.5078
19297SOL    HW259333   6.522   3.518   3.250 -1.3089  0.6963  0.4799
19298SOL     OW59334   4.921   3.341   2.916 -0.5634  0.8115 -0.8950
19298SOL    HW159335   4.869   3.413   2.880 -1.2421  0.6169 -0.3319
19298SOL    HW259336   4.904   3.344   3.010 -1.9926 -1.1211 -1.0351
19299SOL     OW59337   5.973   4.668   1.714  0.7276  0.2398 -0.6210
19299SOL    HW159338   5.898   4.707   1.759 -0.1024 -2.4890  0.5872
19299SOL    HW259339   5.951   4.671   1.621 -1.3843 -1.2675 -0.2454
19300SOL     OW59340   6.160   3.946   5.463  0.2516  0.1570  0.2845
19300SOL    HW159341   6.077   3.983   5.434 -0.0074 -1.1890 -0.7845
19300SOL    HW259342   6.150   3.937   5.558 -1.0796 -0.5538  0.1011
19301SOL     OW59343   1.361   4.574   2.532  0.5442  0.4352 -0.0871
19301SOL    HW159344   1.339   4.498   2.478  0.2729  0.9205 -0.6719
19301SOL    HW259345   1.450   4.557   2.562  0.5597 -0.0205 -0.3775
19302SOL     OW59346   6.597   4.293   2.100 -0.2243  0.1209 -0.3216
19302SOL    HW159347   6.527   4.336   2.050  0.8267  0.7422 -1.3072
19302SOL    HW259348   6.648   4.245   2.035  1.5748  1.4928 -0.0137
19303SOL     OW59349   5.257   1.623   1.584  0.2724  0.6218 -0.0128
19303SOL    HW159350   5.282   1.640   1.674  0.0342 -0.8615  0.3641
19303SOL    HW259351   5.178   1.675   1.570  0.4932  1.1075  0.5296
19304SOL     OW59352   5.428   3.820   0.763  0.2111 -0.7985 -0.1394
19304SOL    HW159353   5.397   3.779   0.843 -0.5804 -1.1899 -0.6344
19304SOL    HW259354   5.348   3.841   0.714  0.6765 -0.3942 -0.7432
19305SOL     OW59355   6.493   3.222   1.350 -0.3347 -0.1864  0.2180
19305SOL    HW159356   6.480   3.317   1.349  2.2584  0.3537  2.8787
19305SOL    HW259357   6.405   3.186   1.364 -1.2033  1.9127  0.6007
19306SOL     OW59358   4.950   3.056   3.234  0.7424  0.0293  0.5202
19306SOL    HW159359   5.039   3.052   3.199  0.1076  0.6147 -1.2935
19306SOL    HW259360   4.934   3.150   3.247 -0.1395  0.0856 -0.7408
19307SOL     OW59361   7.045   3.341   3.038 -0.2255 -0.4323  0.3974
19307SOL    HW159362   7.065   3.359   2.946 -2.3607  1.3431  0.2094
19307SOL    HW259363   6.966   3.288   3.036 -0.5510 -0.0049  1.1922
19308SOL     OW59364   6.303   4.405   2.211  0.3461  0.4437 -0.0399
19308SOL    HW159365   6.331   4.349   2.283  0.1186 -0.0759 -0.3464
19308SOL    HW259366   6.345   4.366   2.134 -1.4707 -0.5708 -0.5699
19309SOL     OW59367   5.289   1.271   3.232  0.1281  0.0925 -0.3811
19309SOL    HW159368   5.300   1.360   3.198  1.7630  0.7332  1.6187
19309SOL    HW259369   5.366   1.223   3.201 -0.8502 -0.7314 -1.6258
19310SOL     OW59370   6.206   3.008   2.347  0.0153 -0.0896  0.4071
19310SOL    HW159371   6.133   3.048   2.395  1.0769  0.0559  1.9524
19310SOL    HW259372   6.178   2.917   2.336 -0.3438 -0.0818  1.1386
19311SOL     OW59373   6.423   3.324   2.651  0.1798 -0.6940  0.1123
19311SOL    HW159374   6.513   3.356   2.660  0.1827 -0.7362  0.2361
19311SOL    HW259375   6.427   3.259   2.581  0.1701 -0.4066 -0.1573
19312SOL     OW59376   7.312   4.463   1.951  0.2094 -0.0461  0.0230
19312SOL    HW159377   7.356   4.410   2.017  0.8450  1.8081  1.1426
19312SOL    HW259378   7.233   4.495   1.995 -0.0546  0.1225 -0.5683
19313SOL     OW59379   5.845   2.200   1.923  0.2516  0.4061 -0.6495
19313SOL    HW159380   5.895   2.118   1.919  1.1770  0.7140  2.2687
19313SOL    HW259381   5.757   2.172   1.950  0.8241  0.3928  1.3156
19314SOL     OW59382   4.030   1.443   2.797  0.4594  0.4287 -0.2705
19314SOL    HW159383   3.986   1.370   2.841  1.6245 -0.7731 -1.0384
19314SOL    HW259384   4.039   1.510   2.865 -0.1482 -0.3424  0.5948
19315SOL     OW59385   7.704   2.798   1.632  0.4716 -0.0940 -0.2965
19315SOL    HW159386   7.697   2.887   1.596 -2.5055 -0.4902 -0.9207
19315SOL    HW259387   7.716   2.812   1.726  0.8046  0.9574 -0.4750
19316SOL     OW59388   4.515   3.046   2.526  0.6083  0.1824 -0.2209
19316SOL    HW159389   4.588   3.098   2.558  0.0282 -0.0310  1.5785
19316SOL    HW259390   4.439   3.102   2.537 -0.0340 -0.9870  1.8047
19317SOL     OW59391   4.860   2.347   3.810  0.0987  0.0336 -0.2732
19317SOL    HW159392   4.800   2.298   3.865  1.1716 -0.8055  0.2051
19317SOL    HW259393   4.924   2.383   3.872  0.1420  0.8202 -0.7730
19318SOL     OW59394   5.163   1.774   5.226  0.2430  0.5360 -0.5490
19318SOL    HW159395   5.233   1.772   5.292 -0.5261 -1.1481  0.2910
19318SOL    HW259396   5.207   1.751   5.144  0.7319 -0.3761 -0.0507
19319SOL     OW59397   7.688   1.712   0.830 -0.2032  0.6981  0.1999
19319SOL    HW159398   7.691   1.689   0.923 -1.7656 -0.6786 -0.0299
19319SOL    HW259399   7.596   1.700   0.806  0.0324  1.7384 -1.3665
19320SOL     OW59400   1.167   5.294   1.006  0.0872 -0.2146  0.6138
19320SOL    HW159401   1.205   5.378   1.030 -0.5484 -0.5952  3.2495
19320SOL    HW259402   1.096   5.316   0.946  1.6618  0.8315 -0.9829
19321SOL     OW59403   6.867   4.239   1.761 -0.2044 -0.4932 -0.0422
19321SOL    HW159404   6.946   4.270   1.716 -1.4107 -0.4648 -2.3013
19321SOL    HW259405   6.846   4.309   1.822  0.9178 -0.0196 -0.1672
19322SOL     OW59406   7.754   3.059   0.948  0.2389  0.4833  0.3647
19322SOL    HW159407   7.680   3.117   0.928  0.4595  0.2899 -1.1571
19322SOL    HW259408   7.767   3.068   1.042 -0.8079  1.6142  0.4268
19323SOL     OW59409   4.034   1.909   3.897  0.6757 -0.0745 -1.0714
19323SOL    HW159410   4.028   1.994   3.940  1.1904 -0.7022  0.2988
19323SOL    HW259411   4.072   1.851   3.963 -0.5794 -1.6132 -1.6431
19324SOL     OW59412   6.833   1.132   4.516  0.1459  0.1073  0.1516
19324SOL    HW159413   6.869   1.062   4.462  0.3948  0.2604  0.1147
19324SOL    HW259414   6.908   1.188   4.534 -0.2628  0.9741 -0.7485
19325SOL     OW59415   5.189   1.057   1.863 -0.1816  0.3932  0.2362
19325SOL    HW159416   5.135   1.130   1.894 -0.6756  0.3065 -0.3929
19325SOL    HW259417   5.214   1.009   1.942 -0.8194  0.5872  0.5557
19326SOL     OW59418   6.891   3.340   1.695 -0.5782 -0.7971 -0.0024
19326SOL    HW159419   6.913   3.428   1.666 -0.7584 -0.2351  1.4698
19326SOL    HW259420   6.830   3.308   1.629 -0.8045  0.3293 -0.3639
19327SOL     OW59421   6.663   3.679   2.644 -0.6108 -0.2216  0.1768
19327SOL    HW159422   6.710   3.717   2.719 -0.7604 -0.0039  0.1596
19327SOL    HW259423   6.661   3.749   2.579 -0.2889 -0.4860 -0.1141
19328SOL     OW59424   6.289   2.485   1.590 -0.3669 -0.2355 -0.2061
19328SOL    HW159425   6.307   2.575   1.619 -0.5481  0.3360 -1.7619
19328SOL    HW259426   6.195   2.483   1.573 -0.4787 -0.9288  0.4340
19329SOL     OW59427   5.554   4.858   2.508 -0.1587  0.1191  0.3137
19329SOL    HW159428   5.601   4.942   2.515  1.6452 -0.6251 -1.7636
19329SOL    HW259429   5.462   4.883   2.502  0.4303  2.1054 -1.8066
19330SOL     OW59430   6.585   3.214   2.219 -0.5051  0.6279  0.0264
19330SOL    HW159431   6.613   3.304   2.231  0.1812  0.6982 -1.7717
19330SOL    HW259432   6.581   3.202   2.124 -2.0157 -0.8026  0.2118
19331SOL     OW59433   7.401   2.944   2.104 -0.0073 -0.5057 -0.3978
19331SOL    HW159434   7.405   3.013   2.170  0.4411 -1.7268  0.8873
19331SOL    HW259435   7.340   2.880   2.140 -0.3113 -0.8650 -1.5129
19332SOL     OW59436   6.415   2.357   2.068 -0.0004  0.7887  0.3890
19332SOL    HW159437   6.387   2.435   2.021  2.8965  0.7225 -1.7278
19332SOL    HW259438   6.381   2.284   2.015  2.0227  0.7189 -0.9354
19333SOL     OW59439   5.990   2.052   3.419 -0.5306  0.2725 -0.6615
19333SOL    HW159440   5.917   2.114   3.411 -0.6507  0.4035  1.1231
19333SOL    HW259441   6.068   2.107   3.415 -0.5978  0.3858 -0.4287
19334SOL     OW59442   6.346   1.790   2.952  0.2157 -0.2613 -0.0321
19334SOL    HW159443   6.302   1.875   2.943  2.1552  0.8017 -0.0496
19334SOL    HW259444   6.371   1.767   2.862 -1.8317 -1.7700 -0.2733
19335SOL     OW59445   5.426   5.080   3.965  0.1582  0.1184 -0.4678
19335SOL    HW159446   5.363   5.088   4.037  0.2169 -1.3056 -0.2259
19335SOL    HW259447   5.371   5.065   3.887  0.1444  0.3166 -0.4964
19336SOL     OW59448   6.100   2.793   0.709  0.5386 -0.0602  0.0596
19336SOL    HW159449   6.115   2.835   0.794 -0.2990  2.0294 -0.7509
19336SOL    HW259450   6.005   2.788   0.701  0.6051 -0.1900 -0.7605
19337SOL     OW59451   5.842   2.389   2.950  0.2041 -0.4530  0.1977
19337SOL    HW159452   5.920   2.438   2.976 -0.2666  0.4859 -0.0917
19337SOL    HW259453   5.776   2.411   3.016 -1.2295  2.5460 -1.9716
19338SOL     OW59454   0.424   1.755   1.954 -0.7358  0.6758 -0.0368
19338SOL    HW159455   0.435   1.835   2.005 -1.3205  1.9761 -1.8656
19338SOL    HW259456   0.369   1.780   1.881 -2.8294 -1.9339  0.4861
19339SOL     OW59457   5.983   3.219   4.710  0.2195 -0.0549  0.5620
19339SOL    HW159458   5.980   3.308   4.676  1.3473 -0.1803  0.0891
19339SOL    HW259459   5.892   3.197   4.729 -0.2159  0.7287 -0.5292
19340SOL     OW59460   0.226   1.605   1.526 -0.3347 -0.7519  0.0274
19340SOL    HW159461   0.182   1.675   1.478  0.8881 -1.3128 -2.0795
19340SOL    HW259462   0.176   1.526   1.505  0.7070 -1.1447 -1.1511
19341SOL     OW59463   6.366   4.255   2.607  0.1074 -0.0447  0.8063
19341SOL    HW159464   6.280   4.229   2.640 -0.2839  1.3527  0.9668
19341SOL    HW259465   6.385   4.193   2.537 -0.8025 -0.6863  1.1127
19342SOL     OW59466   6.715   4.358   4.095 -0.5389 -0.5826  0.2587
19342SOL    HW159467   6.680   4.392   4.177  1.0291 -0.1142  0.7568
19342SOL    HW259468   6.666   4.404   4.027  0.7510  1.9140  0.9196
19343SOL     OW59469   5.155   3.409   4.587  0.2469 -0.0246  0.1065
19343SOL    HW159470   5.184   3.352   4.658  0.9649 -1.2215 -1.0936
19343SOL    HW259471   5.072   3.373   4.558 -1.1708  1.7431  1.6862
19344SOL     OW59472   4.083   3.103   2.224 -0.2418 -0.2230  0.1553
19344SOL    HW159473   4.031   3.028   2.194 -0.2186 -0.4429  0.6653
19344SOL    HW259474   4.137   3.068   2.294  0.7551 -0.0501 -0.4997
19345SOL     OW59475   5.292   2.808   2.634  0.3013  0.1765  0.0471
19345SOL    HW159476   5.280   2.748   2.561  0.5655 -1.6237  1.4064
19345SOL    HW259477   5.386   2.824   2.638  0.1401  1.5448 -0.9210
19346SOL     OW59478   7.168   3.526  11.877  0.1060 -0.2082 -0.1212
19346SOL    HW159479   7.097   3.495  11.933  0.1453  2.5386  1.7030
19346SOL    HW259480   7.136   3.515  11.788 -1.6696 -1.0827  0.5741
19347SOL     OW59481   6.902   3.968   4.952 -0.4130  0.1201  0.3533
19347SOL    HW159482   6.867   3.885   4.985  0.3102 -0.9013 -1.3088
19347SOL    HW259483   6.972   3.942   4.892 -0.5097  1.9205 -0.6002
19348SOL     OW59484   4.729   2.413   2.355  0.4471 -0.5578  0.7865
19348SOL    HW159485   4.789   2.447   2.422  0.4718  0.8914  0.0640
19348SOL    HW259486   4.787   2.384   2.285  0.3567  1.4142 -0.1783
19349SOL     OW59487   6.477   3.318   3.848  0.7003  0.6789  0.3625
19349SOL    HW159488   6.459   3.404   3.887  1.2516  0.6316  0.7256
19349SOL    HW259489   6.409   3.261   3.883  0.5445  0.8828  0.4007
19350SOL     OW59490   5.480   2.135   3.836  0.2262 -0.2925  0.8935
19350SOL    HW159491   5.453   2.225   3.820  0.2561 -0.6287 -1.3568
19350SOL    HW259492   5.563   2.143   3.884 -0.3034  0.8410  1.6572
19351SOL     OW59493   6.923   3.473   4.227 -1.0887  0.0728  0.8219
19351SOL    HW159494   6.994   3.414   4.202 -3.0474 -1.4113 -1.6988
19351SOL    HW259495   6.868   3.421   4.286 -2.1367 -0.2098 -0.3775
19352SOL     OW59496   6.366   3.187   3.066  0.9785  0.0047  0.1706
19352SOL    HW159497   6.371   3.092   3.077  0.7969 -0.2320 -1.5630
19352SOL    HW259498   6.403   3.222   3.147 -0.4841 -1.5135  1.5580
19353SOL     OW59499   5.448   1.904   3.974  0.5067  0.2106  0.5731
19353SOL    HW159500   5.435   1.992   3.939  0.3474  0.7876  2.0026
19353SOL    HW259501   5.366   1.859   3.956 -0.6751  1.3799  2.6070
19354SOL     OW59502   6.279   3.786   3.427 -0.5249 -0.0395 -0.1894
19354SOL    HW159503   6.323   3.722   3.484  0.1466  2.2091  2.0096
19354SOL    HW259504   6.202   3.739   3.394  0.4591 -2.2848  0.4891
19355SOL     OW59505   6.567   2.987   2.647  0.0347  0.4608 -0.2024
19355SOL    HW159506   6.490   2.946   2.608  0.5527 -1.6263  0.8445
19355SOL    HW259507   6.604   3.041   2.576 -1.4406  0.1964 -1.2077
19356SOL     OW59508   7.616   2.536   2.437  0.2728  0.5246  0.0741
19356SOL    HW159509   7.671   2.612   2.455 -1.2107  1.7229 -0.2295
19356SOL    HW259510   7.557   2.531   2.512 -0.5161  0.5021 -0.5387
19357SOL     OW59511   6.973   3.348   1.965  0.5406 -0.3853  0.5088
19357SOL    HW159512   6.908   3.341   2.035 -0.3161  3.2788  0.2716
19357SOL    HW259513   6.921   3.353   1.885  1.1976  0.4427  0.1166
19358SOL     OW59514   5.230   2.776   4.868 -0.2109  0.4220 -0.3743
19358SOL    HW159515   5.177   2.731   4.933 -0.2427  0.3061 -0.4801
19358SOL    HW259516   5.204   2.737   4.785 -0.3470  0.7405 -0.4815
19359SOL     OW59517   5.163   3.431   2.827  0.6540  0.1231  0.0200
19359SOL    HW159518   5.198   3.371   2.761  1.1105  1.2766 -0.8183
19359SOL    HW259519   5.077   3.395   2.849  0.4631 -0.2543 -1.2507
19360SOL     OW59520   0.254   4.945   3.917 -0.9990  0.0180  0.0138
19360SOL    HW159521   0.284   4.972   3.830 -0.2573 -0.2690  0.1743
19360SOL    HW259522   0.333   4.913   3.961 -1.2357  0.7880  1.0406
19361SOL     OW59523   4.869   2.854   1.915 -0.1062  0.2786  0.2868
19361SOL    HW159524   4.856   2.918   1.986 -0.0824  2.1757 -1.3487
19361SOL    HW259525   4.800   2.874   1.852  0.2540 -0.9644 -0.5381
19362SOL     OW59526   5.944   1.958   2.869  0.4163 -0.2785 -0.5455
19362SOL    HW159527   5.911   1.997   2.950 -2.0536  1.7421 -2.3476
19362SOL    HW259528   5.876   1.895   2.843  0.8086 -0.3520 -1.4203
19363SOL     OW59529   6.739   3.104   1.295  0.4565  0.1855  0.0058
19363SOL    HW159530   6.655   3.149   1.307  0.0954 -0.2770 -0.7373
19363SOL    HW259531   6.804   3.171   1.315 -0.0699  1.1519 -1.3442
19364SOL     OW59532   6.158   2.797   4.679 -0.3097 -0.1647  0.2077
19364SOL    HW159533   6.168   2.890   4.658 -2.7181  0.9362  3.2191
19364SOL    HW259534   6.242   2.771   4.716 -0.1133  1.3206  0.8650
19365SOL     OW59535   0.463   3.892   3.950  0.4637  0.0466 -0.6133
19365SOL    HW159536   0.554   3.911   3.973 -0.1068  0.0729  1.9176
19365SOL    HW259537   0.467   3.808   3.904  1.5521 -1.5707  2.1939
19366SOL     OW59538   4.976   1.704   3.908  0.2589 -0.1525  0.4543
19366SOL    HW159539   4.911   1.658   3.963 -1.9609  0.5737 -1.4239
19366SOL    HW259540   4.996   1.783   3.957 -3.3463  1.5853 -0.5302
19367SOL     OW59541   6.897   2.499   1.658  0.0229 -0.0990  0.6297
19367SOL    HW159542   6.931   2.458   1.579 -0.5632 -0.7210  0.6844
19367SOL    HW259543   6.968   2.489   1.722  0.2425 -0.1953  0.3755
19368SOL     OW59544   7.907   3.094   2.525  0.6238  1.0444 -0.3435
19368SOL    HW159545   7.861   3.154   2.584 -2.1343 -0.3446 -0.9356
19368SOL    HW259546   7.956   3.037   2.584 -1.2950  0.3083  0.6207
19369SOL     OW59547   5.914   3.732   4.684  0.0571  0.1734  0.0952
19369SOL    HW159548   5.952   3.649   4.656  1.2969  0.6319  0.3816
19369SOL    HW259549   5.848   3.708   4.750 -1.1174 -0.7176 -1.3510
19370SOL     OW59550   4.537   2.736   3.031  0.3993  0.2636  0.4607
19370SOL    HW159551   4.526   2.668   3.097  0.3785  0.9539  1.1838
19370SOL    HW259552   4.590   2.695   2.963 -3.0767 -1.9045 -1.2347
19371SOL     OW59553   7.138   3.169   1.544 -0.4885 -0.3351 -0.7526
19371SOL    HW159554   7.219   3.207   1.510 -0.3827  0.2675  0.1360
19371SOL    HW259555   7.133   3.200   1.634 -2.9423  1.7017 -1.4773
19372SOL     OW59556   7.413   2.329   2.830 -0.2760  0.1600  0.1696
19372SOL    HW159557   7.323   2.347   2.803 -0.4067 -1.7087 -0.8236
19372SOL    HW259558   7.430   2.240   2.798  1.2337 -0.3262  2.1432
19373SOL     OW59559   7.283   1.618   3.637  0.1225  0.4530  0.2309
19373SOL    HW159560   7.239   1.703   3.633 -1.6148 -0.4249 -0.5065
19373SOL    HW259561   7.218   1.559   3.676 -0.3189 -1.3909 -2.8982
19374SOL     OW59562   3.934   3.673   1.300 -0.1487  0.6023  0.8364
19374SOL    HW159563   3.871   3.729   1.254  0.0307  0.0675 -0.0959
19374SOL    HW259564   4.020   3.705   1.270 -0.0112  0.5262  1.1452
19375SOL     OW59565   5.853   4.363   2.041  0.3645 -0.4919 -0.2877
19375SOL    HW159566   5.828   4.313   2.118  0.5576 -0.6300 -0.3129
19375SOL    HW259567   5.778   4.356   1.982 -0.7276  1.5124  0.7856
19376SOL     OW59568   5.746   2.822   3.161 -0.8092  0.1373  0.4271
19376SOL    HW159569   5.830   2.867   3.155 -0.8301  0.0148 -1.5092
19376SOL    HW259570   5.768   2.730   3.151 -1.2066  0.1531 -0.7114
19377SOL     OW59571   4.715   2.234   4.718 -0.0254 -0.6975 -0.2230
19377SOL    HW159572   4.796   2.276   4.690  0.5912 -1.5496  0.2231
19377SOL    HW259573   4.680   2.293   4.785  0.7149 -0.7731  0.2451
19378SOL     OW59574   5.485   1.775   3.210  0.5156  0.1396  0.2800
19378SOL    HW159575   5.488   1.858   3.164 -0.6817 -0.7558 -1.5221
19378SOL    HW259576   5.482   1.799   3.303  0.6884  2.0694 -0.1760
19379SOL     OW59577   7.799   3.893   4.693  0.2901  0.0935 -0.5554
19379SOL    HW159578   7.818   3.814   4.743  0.8996 -0.1573 -1.1672
19379SOL    HW259579   7.877   3.947   4.703  0.1118  0.3627 -0.6181
19380SOL     OW59580   4.907   2.577   1.908 -0.2823  0.5493 -0.4484
19380SOL    HW159581   4.915   2.671   1.926  1.9447  0.0821  1.4934
19380SOL    HW259582   4.984   2.557   1.854 -0.9071 -0.1337 -1.0967
19381SOL     OW59583   4.968   3.837   2.068  0.4115 -0.1521  0.2396
19381SOL    HW159584   4.970   3.756   2.017  2.0168  0.2870 -0.4597
19381SOL    HW259585   5.056   3.874   2.057 -0.1338  1.4259  0.9604
19382SOL     OW59586   5.476   2.650   4.981  0.6630  0.4834  0.3390
19382SOL    HW159587   5.471   2.698   5.064 -2.5898 -0.0128  0.5975
19382SOL    HW259588   5.426   2.704   4.919  0.3215 -0.6565 -0.4173
19383SOL     OW59589   6.830   2.204   2.301  0.1664 -0.0954  0.1216
19383SOL    HW159590   6.883   2.248   2.234 -0.7676  1.7314  0.5397
19383SOL    HW259591   6.756   2.262   2.316 -0.5768 -1.3245  1.4810
19384SOL     OW59592   6.521   4.358   3.483  0.0291 -0.0121 -0.0311
19384SOL    HW159593   6.479   4.412   3.550 -0.3552  0.0880 -0.3453
19384SOL    HW259594   6.448   4.323   3.431  0.3161 -0.1396 -0.3560
19385SOL     OW59595   6.026   1.679   2.134  0.4513  0.4666 -0.0121
19385SOL    HW159596   5.967   1.608   2.157  1.3968 -0.1277  0.6313
19385SOL    HW259597   6.018   1.741   2.207  0.0974  0.7227 -0.2674
19386SOL     OW59598   7.718   3.435   2.349 -0.2347 -0.0929 -0.1084
19386SOL    HW159599   7.690   3.430   2.440  2.0933 -0.4447  0.6671
19386SOL    HW259600   7.651   3.486   2.305  0.1294  2.8972  2.5019
19387SOL     OW59601   6.482   5.281   3.265  0.2530  0.1337 -0.0280
19387SOL    HW159602   6.404   5.259   3.215 -1.2993  1.0343  1.8697
19387SOL    HW259603   6.524   5.351   3.215 -0.0410 -0.4473 -1.1297
19388SOL     OW59604   7.573   4.778   2.003 -0.0026 -0.0172 -0.5769
19388SOL    HW159605   7.629   4.856   2.008  0.9529 -0.7684  1.0613
19388SOL    HW259606   7.506   4.792   2.070 -0.2636 -0.2803 -0.7793
19389SOL     OW59607   5.041   2.480   3.990  0.1526  0.1605  0.3997
19389SOL    HW159608   5.025   2.428   4.068  0.2766 -2.5105 -1.2297
19389SOL    HW259609   5.132   2.509   3.999 -0.6493  2.4153  2.5051
19390SOL     OW59610   6.661   3.790   1.476 -0.2364  0.4474 -0.6753
19390SOL    HW159611   6.717   3.863   1.502  2.2059 -1.6295  0.3784
19390SOL    HW259612   6.722   3.721   1.451 -2.4031 -1.4716 -1.0239
19391SOL     OW59613   0.339   1.535   2.078  0.1198 -0.1647  0.2966
19391SOL    HW159614   0.384   1.606   2.032 -1.4173  0.0595 -0.9308
19391SOL    HW259615   0.342   1.561   2.170 -0.3252  1.4694 -0.1169
19392SOL     OW59616   6.663   3.516   0.707 -0.0388  0.5270  0.6062
19392SOL    HW159617   6.659   3.523   0.803  0.9576  0.7192  0.6410
19392SOL    HW259618   6.644   3.604   0.675  1.4263  0.9008  0.6983
19393SOL     OW59619   6.485   3.152   5.447 -0.1014  0.4188  0.5258
19393SOL    HW159620   6.503   3.060   5.427  2.3604  0.9925 -0.1354
19393SOL    HW259621   6.540   3.171   5.523  0.9788  1.8449 -0.5692
19394SOL     OW59622   0.578   1.954   3.214 -0.5443 -0.5617  0.4111
19394SOL    HW159623   0.496   1.905   3.214 -0.0615 -1.4683  2.0511
19394SOL    HW259624   0.551   2.045   3.205 -1.6980 -0.8877  0.3733
19395SOL     OW59625   7.888   4.299   3.451 -0.4255 -0.0296 -0.5081
19395SOL    HW159626   7.795   4.301   3.475 -0.5412  3.7586 -0.7678
19395SOL    HW259627   7.896   4.364   3.382  2.5140  0.1392 -0.1170
19396SOL     OW59628   6.439   4.372   0.635  0.0434 -0.3423 -0.1172
19396SOL    HW159629   6.447   4.277   0.623 -0.1868 -0.1767 -1.8023
19396SOL    HW259630   6.421   4.406   0.547 -0.8860  1.1641  0.6121
19397SOL     OW59631   7.567   2.283   4.096 -0.2010 -0.1754  0.5877
19397SOL    HW159632   7.542   2.200   4.136  1.2086 -0.5416  0.7640
19397SOL    HW259633   7.635   2.318   4.153  0.7329  0.0555 -0.6216
19398SOL     OW59634   5.595   2.230   1.678  0.1975 -0.5535 -0.1093
19398SOL    HW159635   5.502   2.209   1.666 -0.0604 -0.3545  1.4091
19398SOL    HW259636   5.616   2.197   1.765  1.2476  0.4577  0.0368
19399SOL     OW59637   6.757   4.071   1.034  0.1757 -0.5489  0.3460
19399SOL    HW159638   6.802   3.993   1.065  1.7998  0.3042  0.2686
19399SOL    HW259639   6.766   4.134   1.106 -1.1899 -0.4360  0.4472
19400SOL     OW59640   6.383   2.951   0.944  0.4989  0.3675  0.1924
19400SOL    HW159641   6.398   3.040   0.914 -1.3938  0.3745 -0.9352
19400SOL    HW259642   6.380   2.957   1.039  1.4992  1.2858  0.1753
19401SOL     OW59643   6.980   2.937   2.176  0.0738  0.1529  0.0340
19401SOL    HW159644   6.914   2.879   2.213 -0.0476 -1.4191 -2.4951
19401SOL    HW259645   6.930   3.002   2.126  0.3614 -0.1257 -0.6264
19402SOL     OW59646   6.515   3.850   1.087 -0.1669 -0.3439 -0.5212
19402SOL    HW159647   6.510   3.927   1.030 -0.3525  0.5043  0.6096
19402SOL    HW259648   6.608   3.824   1.085  0.4307  1.4539  1.0262
19403SOL     OW59649   5.915   2.669   2.450 -0.2448  0.4294 -0.6082
19403SOL    HW159650   5.974   2.711   2.513 -1.0339  1.7609 -0.7233
19403SOL    HW259651   5.876   2.741   2.401 -2.2907 -0.3538 -0.2666
19404SOL     OW59652   5.636   2.746   2.142 -0.0258  0.0924  0.5012
19404SOL    HW159653   5.668   2.832   2.116  1.3218  0.0053  1.7607
19404SOL    HW259654   5.543   2.746   2.118 -0.1686  2.0836  0.9208
19405SOL     OW59655   5.000   3.588   1.894 -0.1122 -0.0194  0.1859
19405SOL    HW159656   5.093   3.563   1.892 -0.1505 -0.1351 -0.5863
19405SOL    HW259657   4.958   3.524   1.837 -0.5179  0.6268 -0.2495
19406SOL     OW59658   5.072   2.861   2.886  0.4912 -0.5043  0.2451
19406SOL    HW159659   5.018   2.936   2.863 -1.6620 -2.3523 -1.1008
19406SOL    HW259660   5.142   2.861   2.820  1.2926  0.9780  1.0323
19407SOL     OW59661   1.026   3.434   1.639  0.8072 -0.1566 -0.5093
19407SOL    HW159662   0.949   3.387   1.670  0.7919 -0.6384 -1.2557
19407SOL    HW259663   1.003   3.464   1.551  1.0008  0.8237 -0.2413
19408SOL     OW59664   6.038   3.114   2.991 -0.2039 -0.1216 -0.3012
19408SOL    HW159665   6.085   3.171   2.930  0.5662  0.3007  0.6593
19408SOL    HW259666   5.957   3.091   2.946  1.4929 -2.0563 -2.6723
19409SOL     OW59667   4.940   2.502   1.424  0.1124 -0.4070  0.6566
19409SOL    HW159668   4.956   2.427   1.481 -1.6117 -1.2417  0.1231
19409SOL    HW259669   4.896   2.566   1.479 -1.5741 -1.2220  0.3120
19410SOL     OW59670   7.074   3.869   4.731 -0.4000  0.3550 -0.2469
19410SOL    HW159671   7.037   3.821   4.657 -1.2259  0.9441 -0.2275
19410SOL    HW259672   7.114   3.947   4.692  1.4917 -0.5983 -0.3519
19411SOL     OW59673   6.242   2.205   1.857  0.4318 -0.4175  0.3567
19411SOL    HW159674   6.196   2.136   1.810 -0.3308 -1.3985  2.4173
19411SOL    HW259675   6.175   2.269   1.879  1.2124  1.3051 -1.9385
19412SOL     OW59676   4.679   2.446   1.845  0.3061 -0.3468  0.0407
19412SOL    HW159677   4.714   2.368   1.802 -0.8357 -0.1312 -1.3806
19412SOL    HW259678   4.756   2.496   1.872  1.2756  0.7832 -4.1328
19413SOL     OW59679   0.472   3.051   2.663  0.7695  0.1002 -0.0643
19413SOL    HW159680   0.470   3.094   2.748 -0.6213 -0.3668  0.1649
19413SOL    HW259681   0.416   2.975   2.673  0.3998  0.1539 -1.4596
19414SOL     OW59682   4.372   2.381   2.253  0.3097 -0.0930 -0.1840
19414SOL    HW159683   4.379   2.358   2.161 -1.3443 -1.8293  0.0514
19414SOL    HW259684   4.291   2.432   2.260 -0.2297 -0.9717  0.4117
19415SOL     OW59685   7.293   2.645   1.318  0.5785  0.1064 -0.1411
19415SOL    HW159686   7.353   2.720   1.321  2.9414 -1.5233 -2.1203
19415SOL    HW259687   7.292   2.611   1.407  2.1580  0.5370  0.0682
19416SOL     OW59688   6.363   3.555   3.540  0.3721 -0.3777  0.1747
19416SOL    HW159689   6.396   3.493   3.474  1.0323  0.2244 -0.0685
19416SOL    HW259690   6.296   3.505   3.588 -0.5227 -0.6637 -1.3041
19417SOL     OW59691   6.346   4.335   1.950 -0.1758  0.2813 -0.7450
19417SOL    HW159692   6.268   4.375   1.913  0.5700  1.0945 -1.4889
19417SOL    HW259693   6.333   4.241   1.937 -0.4423  0.4771 -2.1134
19418SOL     OW59694   5.438   2.485   2.105 -0.4357  0.6827  0.3328
19418SOL    HW159695   5.529   2.498   2.134 -0.1591  0.8859 -0.6033
19418SOL    HW259696   5.412   2.402   2.146  0.0450  0.7947  0.8950
19419SOL     OW59697   5.999   2.340   3.991  0.3483 -0.0107  0.0693
19419SOL    HW159698   6.005   2.374   4.080  0.3722  0.5262 -0.1343
19419SOL    HW259699   6.089   2.322   3.966  0.2690 -1.1719  0.5270
19420SOL     OW59700   7.269   2.629   2.728  0.2141  0.1494 -0.3502
19420SOL    HW159701   7.279   2.690   2.801  2.0423 -1.2698  0.6669
19420SOL    HW259702   7.205   2.565   2.759  0.2356  0.1042 -0.3999
19421SOL     OW59703   1.036   4.466   3.628  0.4227 -0.1233 -0.1174
19421SOL    HW159704   1.018   4.404   3.698  0.9514 -0.1813 -0.0278
19421SOL    HW259705   0.989   4.431   3.552 -1.8666  1.0272  0.6877
19422SOL     OW59706   7.738   0.867   2.461 -0.1475 -0.2851 -0.1404
19422SOL    HW159707   7.782   0.921   2.527  0.2549 -0.3873 -0.3245
19422SOL    HW259708   7.781   0.889   2.379 -2.7086  2.2356 -0.9973
19423SOL     OW59709   5.438   3.365   2.278 -0.1402 -0.1427 -0.5094
19423SOL    HW159710   5.408   3.456   2.280  0.4965  0.0660  0.8636
19423SOL    HW259711   5.414   3.330   2.364  0.0203 -1.1381 -0.8560
19424SOL     OW59712   7.352   2.274   3.140  0.0511 -0.2671  0.4083
19424SOL    HW159713   7.362   2.281   3.045 -1.0645 -1.3408  0.1763
19424SOL    HW259714   7.324   2.361   3.169 -0.2963 -0.1205 -0.3518
19425SOL     OW59715   6.374   3.674   3.015  0.1273  0.2574 -0.2743
19425SOL    HW159716   6.378   3.696   2.922  0.2957  1.0285 -0.0983
19425SOL    HW259717   6.318   3.742   3.053 -2.1043 -1.5432 -0.2131
19426SOL     OW59718   5.359   2.976   1.540 -0.0773  0.2883 -0.6087
19426SOL    HW159719   5.343   3.040   1.610  3.5210  1.5039 -0.6818
19426SOL    HW259720   5.439   2.930   1.567 -0.0712 -1.0635 -2.6983
19427SOL     OW59721   6.306   2.207   4.146  0.1217  0.2600 -0.1500
19427SOL    HW159722   6.282   2.170   4.231 -0.1921 -0.9787 -0.7561
19427SOL    HW259723   6.382   2.262   4.165  1.4730 -1.7591  0.6186
19428SOL     OW59724   6.326   3.542   1.292  0.3103 -0.5735 -0.2162
19428SOL    HW159725   6.260   3.473   1.280 -0.2810 -0.1746  0.6231
19428SOL    HW259726   6.296   3.614   1.236 -1.7553  0.8099  2.4729
19429SOL     OW59727   6.515   2.740   2.884 -0.1239  0.2770  0.1355
19429SOL    HW159728   6.597   2.787   2.874 -0.7112  1.6980  1.6338
19429SOL    HW259729   6.452   2.792   2.834 -0.4578  0.1786  0.4536
19430SOL     OW59730   0.109   3.113   2.182  0.0175  0.0033 -0.6484
19430SOL    HW159731   0.125   3.084   2.272  1.7073 -0.1915 -0.9809
19430SOL    HW259732   0.100   3.032   2.132 -1.4236  0.1110 -0.5996
19431SOL     OW59733   6.026   5.592   1.108 -0.1598 -0.4105 -0.3577
19431SOL    HW159734   5.966   5.550   1.047 -0.1753  0.2117 -0.7840
19431SOL    HW259735   5.991   5.571   1.195 -0.8799 -0.2192 -0.5935
19432SOL     OW59736   6.266   2.639   0.328  0.3405 -0.0671 -0.0425
19432SOL    HW159737   6.271   2.734   0.317 -1.1673  0.1115  0.5391
19432SOL    HW259738   6.310   2.622   0.411  1.1640  0.0403 -0.4519
19433SOL     OW59739   6.464   3.872   1.923 -0.2252  0.4666 -0.2626
19433SOL    HW159740   6.535   3.823   1.964  0.5835  1.7078 -0.1266
19433SOL    HW259741   6.396   3.807   1.907  0.5274 -0.5551  0.5576
19434SOL     OW59742   7.602   3.981   3.388 -0.1625  0.3514 -0.1763
19434SOL    HW159743   7.510   3.964   3.410 -0.4483  0.1426 -1.4702
19434SOL    HW259744   7.601   3.998   3.294  1.1791  0.0018 -0.2636
19435SOL     OW59745   6.820   0.578   1.046 -0.0797 -0.1967  0.1611
19435SOL    HW159746   6.816   0.515   1.117  0.3431 -0.1251  0.2498
19435SOL    HW259747   6.763   0.542   0.978 -1.9250  0.5905  1.2038
19436SOL     OW59748   6.383   1.403   2.319 -0.1925  0.2149  0.2500
19436SOL    HW159749   6.457   1.342   2.310 -0.6930 -0.3390 -0.2261
19436SOL    HW259750   6.349   1.386   2.406  0.3155  0.5568  0.5181
19437SOL     OW59751   6.787   1.205   3.191 -0.2057 -0.5065 -0.1358
19437SOL    HW159752   6.776   1.301   3.194 -0.6312 -0.5475 -0.3616
19437SOL    HW259753   6.835   1.185   3.272 -0.6024 -0.1616  0.1927
19438SOL     OW59754   5.458   2.076   3.203 -0.7111  0.3715  0.1328
19438SOL    HW159755   5.367   2.086   3.176 -1.2425 -0.7421  1.3745
19438SOL    HW259756   5.482   2.160   3.240 -0.7950  1.0854 -1.3457
19439SOL     OW59757   4.406   1.509   0.926  0.5916 -0.4417 -0.4841
19439SOL    HW159758   4.325   1.476   0.967  0.4697  0.3102 -0.1049
19439SOL    HW259759   4.471   1.507   0.997  0.8266 -0.7333 -0.7042
19440SOL     OW59760   5.564   1.513   3.793 -0.4027  0.0464 -0.2237
19440SOL    HW159761   5.612   1.430   3.787 -0.3989  0.0860 -0.7414
19440SOL    HW259762   5.609   1.571   3.732 -1.1610  0.0558 -0.7748
19441SOL     OW59763   5.401   3.526   3.258  0.1836 -0.1135  0.1931
19441SOL    HW159764   5.397   3.565   3.346  0.9314 -1.7039  0.9592
19441SOL    HW259765   5.459   3.451   3.267  1.3965  0.4698 -1.9887
19442SOL     OW59766   5.725   3.948   2.628 -0.2797 -0.3177 -0.7976
19442SOL    HW159767   5.813   3.917   2.650 -0.6089 -2.0175 -1.7088
19442SOL    HW259768   5.738   4.005   2.552  0.1317  0.3812 -0.2255
19443SOL     OW59769   5.714   2.589   1.890  0.6369  0.0329 -0.1082
19443SOL    HW159770   5.714   2.551   1.977  2.7250  0.6808  0.2147
19443SOL    HW259771   5.633   2.557   1.850  0.0269 -0.8963  1.7737
19444SOL     OW59772   5.470   2.777   0.608 -0.2172 -0.0360 -0.9258
19444SOL    HW159773   5.565   2.783   0.601 -0.1255  0.3837  0.4439
19444SOL    HW259774   5.451   2.802   0.698 -1.6504  0.0917 -1.2438
19445SOL     OW59775   6.081   2.256   2.612  0.7096  0.3580 -0.0988
19445SOL    HW159776   6.125   2.197   2.672  0.9601  0.9318  0.2894
19445SOL    HW259777   6.151   2.309   2.574  0.2977  2.1514  1.4714
19446SOL     OW59778   5.299   1.085   0.932 -0.3328 -0.8768 -0.7200
19446SOL    HW159779   5.325   1.177   0.937 -1.0956 -0.4515 -3.4328
19446SOL    HW259780   5.381   1.038   0.920 -0.0180 -0.4895 -0.1552
19447SOL     OW59781   5.605   3.661   1.589 -0.2744  0.1830 -0.3611
19447SOL    HW159782   5.630   3.647   1.681 -0.6051  1.0794 -0.1233
19447SOL    HW259783   5.510   3.656   1.590 -0.2953  0.5479 -0.5933
19448SOL     OW59784   4.341   2.127   3.305 -0.6650 -0.5733  0.1163
19448SOL    HW159785   4.332   2.117   3.211 -1.7866 -0.3125  0.1762
19448SOL    HW259786   4.367   2.040   3.336  0.9757 -0.3532 -0.5408
19449SOL     OW59787   4.413   0.995   6.726  0.1665  0.5608  0.2964
19449SOL    HW159788   4.444   0.905   6.733 -1.4647  0.0293  1.0659
19449SOL    HW259789   4.322   0.992   6.755 -0.6555  2.0320 -1.8472
19450SOL     OW59790   6.940   2.294   6.265 -0.1689  0.0430  0.4006
19450SOL    HW159791   6.903   2.219   6.311  2.1515  0.4764  3.2373
19450SOL    HW259792   6.989   2.256   6.193 -1.3473 -0.9059  0.0597
19451SOL     OW59793   5.631   3.860   3.987  0.5211  0.0959  0.3981
19451SOL    HW159794   5.544   3.848   3.949 -0.8777 -0.8498  3.6028
19451SOL    HW259795   5.663   3.772   4.003  0.8808  0.4493  1.7121
19452SOL     OW59796   7.082   3.026   4.306 -0.1823 -0.0235  0.7184
19452SOL    HW159797   7.139   2.978   4.366 -1.4683  0.1471  2.1347
19452SOL    HW259798   6.998   2.979   4.309 -0.2556 -0.1044 -1.0909
19453SOL     OW59799   6.775   1.294   4.871  0.4391  0.1089  0.4132
19453SOL    HW159800   6.800   1.224   4.932 -1.1266 -0.1430  0.8032
19453SOL    HW259801   6.681   1.307   4.887  0.8865  3.1311  1.2420
19454SOL     OW59802   7.772   3.835   4.095  0.0382  0.0079  0.2963
19454SOL    HW159803   7.694   3.875   4.133 -1.3687 -1.7785 -0.6100
19454SOL    HW259804   7.795   3.893   4.022 -2.0173 -0.7453 -1.0421
19455SOL     OW59805   6.469   5.016   5.390 -0.3600  0.0075  0.4438
19455SOL    HW159806   6.444   4.943   5.334  0.9997  0.6175 -1.0362
19455SOL    HW259807   6.507   4.975   5.467 -0.2041 -0.8509 -0.0826
19456SOL     OW59808   6.863   3.989   5.286 -0.7701 -0.1973  0.1032
19456SOL    HW159809   6.772   3.977   5.314 -1.1058  0.9109 -0.4550
19456SOL    HW259810   6.857   4.043   5.207  0.3520 -0.4962 -0.2083
19457SOL     OW59811   6.248   2.954   2.798 -0.6013  0.1685  0.2694
19457SOL    HW159812   6.253   2.944   2.894 -0.0978 -1.1829  0.1301
19457SOL    HW259813   6.239   3.048   2.784 -2.2208  0.2685  1.7065
19458SOL     OW59814   6.709   2.242   5.542 -0.5109  0.3492  0.2995
19458SOL    HW159815   6.628   2.201   5.514  0.3308 -0.2342 -1.3858
19458SOL    HW259816   6.686   2.335   5.552 -1.3025  0.2541 -0.4979
19459SOL     OW59817   6.846   3.538   5.810  0.7272  0.3129 -0.0414
19459SOL    HW159818   6.759   3.548   5.771  1.1262  0.5708 -0.8933
19459SOL    HW259819   6.880   3.628   5.815  0.4538  0.3596  1.4806
19460SOL     OW59820   7.132   2.887   6.290 -0.2837  0.1548 -0.8138
19460SOL    HW159821   7.163   2.969   6.328  0.0697  1.0833 -2.9754
19460SOL    HW259822   7.198   2.822   6.317 -0.0907  0.7382  0.1716
19461SOL     OW59823   6.674   1.329   6.841 -0.2106  0.2491 -0.1680
19461SOL    HW159824   6.659   1.327   6.935 -1.7426  1.6480 -0.3502
19461SOL    HW259825   6.751   1.274   6.828  0.5885  0.7594  2.0025
19462SOL     OW59826   6.524   0.995   6.187  0.5053 -0.9740 -0.0774
19462SOL    HW159827   6.518   0.956   6.100 -0.5254 -1.6312  0.2578
19462SOL    HW259828   6.555   0.924   6.243 -0.9390 -1.2161  0.4579
19463SOL     OW59829   5.468   3.969   5.853 -0.3396  0.9582  0.1118
19463SOL    HW159830   5.454   4.058   5.819  0.4225  1.5455  1.2841
19463SOL    HW259831   5.435   3.972   5.943 -0.6979 -0.0743  0.0293
19464SOL     OW59832   5.578   4.059   4.514  0.2480  0.5416  0.9783
19464SOL    HW159833   5.639   4.132   4.514 -0.1658  0.8947  0.2360
19464SOL    HW259834   5.550   4.052   4.606 -0.3110  1.8309  0.9287
19465SOL     OW59835   5.071   2.210   5.340 -0.7673 -0.1116  0.1874
19465SOL    HW159836   5.153   2.232   5.386 -1.4352  1.0719  0.8622
19465SOL    HW259837   5.038   2.133   5.387 -1.3763  1.0079  1.6586
19466SOL     OW59838   6.351   2.897   3.872 -0.4551  0.2185  0.1148
19466SOL    HW159839   6.266   2.863   3.846 -0.0160 -0.1566 -0.8662
19466SOL    HW259840   6.403   2.897   3.792 -0.2140  2.5880  0.1856
19467SOL     OW59841   5.619   4.202   6.146  0.2709 -0.6462  0.1353
19467SOL    HW159842   5.523   4.199   6.139 -0.0821 -5.3511  3.0700
19467SOL    HW259843   5.649   4.201   6.055 -2.2629  2.5905 -0.9508
19468SOL     OW59844   6.231   3.194   5.397  0.3240 -0.1380  0.1226
19468SOL    HW159845   6.207   3.102   5.385 -0.7355  0.2872 -1.2358
19468SOL    HW259846   6.319   3.191   5.436 -0.4285 -1.7131  1.8509
19469SOL     OW59847   6.154   3.175   4.979 -0.0784 -0.2007 -0.4184
19469SOL    HW159848   6.244   3.163   4.948  1.0094  1.0293  1.9895
19469SOL    HW259849   6.115   3.237   4.917  0.3604 -1.5041 -2.0597
19470SOL     OW59850   4.982   2.280   6.041  0.1081 -0.0712 -0.3458
19470SOL    HW159851   4.971   2.218   5.968 -0.9910 -0.3176  0.0179
19470SOL    HW259852   4.894   2.310   6.061  0.3081 -0.4376  1.2570
19471SOL     OW59853   6.169   3.794   4.802 -0.0425 -0.2130  0.0191
19471SOL    HW159854   6.092   3.778   4.747  1.4825  0.5886 -2.5242
19471SOL    HW259855   6.208   3.874   4.767  1.9084 -0.5451  1.2613
19472SOL     OW59856   5.692   1.977   5.241 -0.1089  0.1067 -0.0492
19472SOL    HW159857   5.737   1.901   5.204 -0.0489  1.4195 -2.9479
19472SOL    HW259858   5.668   2.030   5.165 -0.6841  2.7126  1.8170
19473SOL     OW59859   6.503   2.884   5.391  0.1543  0.6162  0.0133
19473SOL    HW159860   6.541   2.864   5.305 -0.9217 -0.1473 -0.3031
19473SOL    HW259861   6.518   2.804   5.442 -1.8469 -0.1002 -0.4327
19474SOL     OW59862   6.907   2.821   3.180 -0.0522  0.3044 -0.5957
19474SOL    HW159863   6.972   2.825   3.250 -0.8523  0.5092  0.1533
19474SOL    HW259864   6.834   2.874   3.212 -1.7840 -2.1852 -0.1582
19475SOL     OW59865   5.586   2.904   5.091  0.2428  0.0138 -0.2999
19475SOL    HW159866   5.630   2.988   5.107 -2.1274  1.3222 -0.1299
19475SOL    HW259867   5.613   2.880   5.002  0.2551  1.4436 -0.7135
19476SOL     OW59868   5.282   3.800   3.316 -0.3266  0.0976 -0.7132
19476SOL    HW159869   5.330   3.820   3.235 -1.3232  0.5014 -1.2195
19476SOL    HW259870   5.226   3.875   3.330  1.3232  1.0379  1.5512
19477SOL     OW59871   6.141   2.201   5.211 -0.1501  0.2476  0.1578
19477SOL    HW159872   6.155   2.256   5.289 -0.4992 -0.0015  0.3994
19477SOL    HW259873   6.117   2.115   5.247 -0.5564  0.1989 -0.2260
19478SOL     OW59874   5.009   1.309   2.321 -0.5225 -0.1604  0.0752
19478SOL    HW159875   4.945   1.244   2.294 -1.0408  0.6004 -0.6045
19478SOL    HW259876   5.046   1.275   2.403 -2.0723 -0.4408  0.6933
19479SOL     OW59877   5.230   1.401   4.014  0.3919 -0.4511  0.7707
19479SOL    HW159878   5.302   1.462   4.025  0.8467 -1.0991  1.5552
19479SOL    HW259879   5.153   1.447   4.048  0.2443  0.5715 -0.8861
19480SOL     OW59880   0.213   4.493   3.362 -0.4541  0.4467  0.1178
19480SOL    HW159881   0.216   4.502   3.458 -1.0878 -0.2691  0.2155
19480SOL    HW259882   0.282   4.430   3.341 -1.0567 -0.2676  0.2322
19481SOL     OW59883   7.168   4.001   6.098 -0.1553 -0.1004  0.2250
19481SOL    HW159884   7.145   4.064   6.167  0.9459  0.8831 -0.2675
19481SOL    HW259885   7.139   4.043   6.017  2.5195  0.8511 -0.3400
19482SOL     OW59886   5.968   2.099   4.155 -0.7682  0.7501  0.1711
19482SOL    HW159887   6.037   2.164   4.142  0.9306 -0.4972  2.3488
19482SOL    HW259888   5.889   2.151   4.170 -0.1274  2.2244 -1.2874
19483SOL     OW59889   7.222   3.720   4.922 -0.4358  0.1934 -0.5452
19483SOL    HW159890   7.181   3.772   4.854 -0.2114  1.0215 -0.0569
19483SOL    HW259891   7.248   3.783   4.989 -1.2329 -0.6771  0.6170
19484SOL     OW59892   0.321   3.404   5.053 -0.0759 -0.0147  0.1603
19484SOL    HW159893   0.323   3.443   4.966  1.8032  1.2758  0.7255
19484SOL    HW259894   0.358   3.471   5.110 -0.4087 -1.1905  1.8221
19485SOL     OW59895   6.469   2.456   4.348  0.0223 -0.2766  0.3841
19485SOL    HW159896   6.382   2.415   4.354 -0.3521 -0.2924 -3.1795
19485SOL    HW259897   6.524   2.391   4.306  0.8523  0.8764 -0.3964
19486SOL     OW59898   7.119   1.632   4.064  0.6193  0.3111  0.0314
19486SOL    HW159899   7.123   1.670   4.152  4.0184  0.8873 -0.2475
19486SOL    HW259900   7.162   1.696   4.009  1.4738 -1.4751 -1.4729
19487SOL     OW59901   5.835   3.057   2.817  0.2368 -0.5041  0.1024
19487SOL    HW159902   5.751   3.100   2.803  0.1722 -0.1373  1.4512
19487SOL    HW259903   5.817   2.964   2.807  0.0601 -0.3308 -1.3619
19488SOL     OW59904   5.510   2.960   5.571  0.1004 -0.0129  0.6878
19488SOL    HW159905   5.430   2.907   5.574  0.1589 -0.1881 -0.4926
19488SOL    HW259906   5.523   2.979   5.478  1.7941 -0.5602  0.7685
19489SOL     OW59907   1.235   1.599   6.621  0.4308 -0.8777  0.1226
19489SOL    HW159908   1.274   1.540   6.686  1.2553  0.9334  1.3456
19489SOL    HW259909   1.162   1.640   6.667  0.7446  0.0880 -0.2131
19490SOL     OW59910   5.402   1.194   3.685 -0.0160 -0.6325 -0.8840
19490SOL    HW159911   5.320   1.189   3.636 -0.9121  0.8283  0.3638
19490SOL    HW259912   5.378   1.240   3.766  1.3828 -2.9693  0.9634
19491SOL     OW59913   6.395   3.697   2.740 -0.6828 -0.6670 -0.2723
19491SOL    HW159914   6.375   3.755   2.667  1.2002  0.9880  0.4667
19491SOL    HW259915   6.487   3.675   2.730 -0.4476 -0.6221  1.4433
19492SOL     OW59916   6.377   2.892   3.071 -0.2890 -0.2736 -0.1052
19492SOL    HW159917   6.461   2.851   3.053 -0.2018  0.0200 -0.3790
19492SOL    HW259918   6.312   2.825   3.051 -0.0627 -1.3793  2.4609
19493SOL     OW59919   4.884   2.098   3.611  0.0817  0.2077  0.2033
19493SOL    HW159920   4.860   2.142   3.693 -0.7702 -1.1818  0.7386
19493SOL    HW259921   4.899   2.007   3.636 -0.4943 -0.3174 -1.2279
19494SOL     OW59922   5.263   4.589   6.729 -0.4614  0.6142 -0.8397
19494SOL    HW159923   5.224   4.623   6.648 -0.2589 -0.1951 -1.2930
19494SOL    HW259924   5.357   4.596   6.714 -0.4198  1.2086 -0.3367
19495SOL     OW59925   5.302   3.456   4.061  0.4490 -0.2078 -0.1480
19495SOL    HW159926   5.208   3.449   4.077  0.1848 -0.7146 -1.7476
19495SOL    HW259927   5.326   3.541   4.098 -0.4236 -0.4998  1.1495
19496SOL     OW59928   6.083   3.363   7.170  0.2580 -0.2485 -0.6908
19496SOL    HW159929   6.052   3.454   7.173  1.0168  0.0567 -1.6921
19496SOL    HW259930   6.173   3.367   7.202  0.1695 -0.7232 -0.3652
19497SOL     OW59931   6.251   2.344   4.525 -0.0717 -0.3236  0.2248
19497SOL    HW159932   6.310   2.384   4.589  0.9552 -0.0502 -0.8712
19497SOL    HW259933   6.174   2.319   4.577  0.3843  0.6299  1.4150
19498SOL     OW59934   6.226   1.701   3.358 -0.2037  0.2291 -0.2902
19498SOL    HW159935   6.269   1.620   3.387 -0.2883 -0.1683 -1.2554
19498SOL    HW259936   6.161   1.719   3.427 -0.3951 -0.6980 -0.2141
19499SOL     OW59937   5.166   1.305   5.161 -0.3528 -0.5452 -0.0177
19499SOL    HW159938   5.241   1.319   5.102 -0.4421 -0.1937 -0.0552
19499SOL    HW259939   5.116   1.234   5.121 -1.3939  0.8749 -1.3707
19500SOL     OW59940   5.836   5.404   4.193  0.2277 -0.3209 -0.1807
19500SOL    HW159941   5.781   5.336   4.232 -0.1591  0.5538  0.8430
19500SOL    HW259942   5.903   5.356   4.145  0.2903 -1.4444  0.9757
19501SOL     OW59943   6.237   2.889   5.322 -0.6505  0.1479 -0.1732
19501SOL    HW159944   6.214   2.810   5.372 -1.1954 -0.9551 -2.0583
19501SOL    HW259945   6.332   2.895   5.330 -0.4336 -1.4952 -1.0550
19502SOL     OW59946   6.140   3.823   5.197 -0.2433 -0.2833  0.1907
19502SOL    HW159947   6.206   3.892   5.208 -0.0508 -0.2666 -0.9583
19502SOL    HW259948   6.057   3.866   5.217 -0.3096  0.7683 -1.9879
19503SOL     OW59949   4.270   0.474   4.025  0.4693 -0.1374  0.5598
19503SOL    HW159950   4.295   0.479   4.118  1.7998  1.0488  0.1747
19503SOL    HW259951   4.209   0.547   4.013  1.8348  0.9785  0.0998
19504SOL     OW59952   7.182   3.771   2.088 -0.4411 -0.1336  0.8120
19504SOL    HW159953   7.125   3.750   2.162 -1.7117  0.2229 -0.0403
19504SOL    HW259954   7.178   3.694   2.032  1.8369 -1.1020  1.8420
19505SOL     OW59955   5.674   2.279   6.676  0.2516 -0.4026 -0.3669
19505SOL    HW159956   5.624   2.324   6.607  1.6812 -0.3566 -1.4201
19505SOL    HW259957   5.718   2.208   6.630  3.9940  1.6397 -0.3317
19506SOL     OW59958   7.811   3.817   3.463 -0.1634  0.2732 -0.3483
19506SOL    HW159959   7.732   3.870   3.450  0.8843  2.0833  0.3330
19506SOL    HW259960   7.795   3.771   3.546 -0.7074  0.2238 -0.4776
19507SOL     OW59961   7.896   1.986   6.601  0.6005 -0.0311  0.2675
19507SOL    HW159962   7.806   2.020   6.599  0.7563  0.3576 -0.9681
19507SOL    HW259963   7.903   1.932   6.522  0.9694 -1.3800  1.1869
19508SOL     OW59964   1.202   3.112   2.786  0.2164  0.2393  0.3249
19508SOL    HW159965   1.222   3.156   2.703 -0.8867 -0.0565 -0.1120
19508SOL    HW259966   1.280   3.127   2.840  1.8921 -1.3616 -1.4704
19509SOL     OW59967   7.389   4.299   3.281  0.2103  0.1104  0.6240
19509SOL    HW159968   7.394   4.394   3.269  0.6397 -0.0540 -0.7455
19509SOL    HW259969   7.472   4.267   3.245 -0.2291 -0.8292  0.4274
19510SOL     OW59970   5.584   3.024   3.318  0.1156 -0.5199  0.3805
19510SOL    HW159971   5.618   2.962   3.254 -0.8814 -0.2603 -0.4356
19510SOL    HW259972   5.563   3.102   3.267 -0.4193 -0.2042  1.0656
19511SOL     OW59973   5.088   2.493   5.926  0.0102  0.7002  0.0493
19511SOL    HW159974   5.079   2.540   6.009 -0.3440 -0.4032  0.6535
19511SOL    HW259975   5.061   2.404   5.946 -1.7049  0.7663 -1.6520
19512SOL     OW59976   7.349   3.131   4.620  0.8149 -0.5419 -0.2725
19512SOL    HW159977   7.293   3.069   4.667 -0.5614  0.8437  0.0243
19512SOL    HW259978   7.411   3.163   4.687  1.1388 -1.1438 -0.2814
19513SOL     OW59979   5.955   2.431   6.311  0.1017 -0.3228  0.0323
19513SOL    HW159980   5.943   2.502   6.374 -1.0539 -0.1247 -0.3752
19513SOL    HW259981   5.925   2.468   6.228 -2.5269 -1.8472  0.1620
19514SOL     OW59982   5.866   2.617   5.104  0.0667  0.1548  0.0221
19514SOL    HW159983   5.925   2.667   5.048  0.8607  0.8848  1.4474
19514SOL    HW259984   5.779   2.632   5.067  0.4509  1.4721 -0.3936
19515SOL     OW59985   5.210   3.060   3.120 -0.1921  0.2897  0.3715
19515SOL    HW159986   5.276   2.990   3.118  1.1470  1.4610  1.2196
19515SOL    HW259987   5.235   3.118   3.048  0.3477  1.2523  1.2944
19516SOL     OW59988   6.733   1.443   4.061 -0.3011 -0.9332  0.3483
19516SOL    HW159989   6.651   1.432   4.012  0.0685 -0.0341 -0.4894
19516SOL    HW259990   6.711   1.503   4.132 -0.4435 -0.9486  0.3176
19517SOL     OW59991   6.785   4.289   3.399 -0.1600 -0.1678 -0.0402
19517SOL    HW159992   6.838   4.369   3.400 -2.3068  1.3960 -0.9095
19517SOL    HW259993   6.712   4.309   3.458  0.0147 -2.1273  0.9214
19518SOL     OW59994   5.994   3.015   3.702 -0.3725 -0.1537  0.1231
19518SOL    HW159995   5.942   2.974   3.633  0.4485 -0.4218 -0.3522
19518SOL    HW259996   6.057   3.071   3.655  0.8327 -1.0749  0.5865
19519SOL     OW59997   6.617   5.067   5.148 -0.1762  0.0916  0.0254
19519SOL    HW159998   6.591   5.088   5.238  1.1520 -0.9014  0.6874
19519SOL    HW259999   6.561   4.993   5.124 -0.4681  0.2957  0.0770
19520SOL     OW60000   7.389   2.434   3.934 -0.0436  0.1573 -0.2984
19520SOL    HW160001   7.456   2.493   3.903  0.8874 -1.2480 -1.0518
19520SOL    HW260002   7.437   2.365   3.981 -0.7879 -1.5198 -1.8770
19521SOL     OW60003   6.486   0.681   5.541 -0.0423 -0.6335  0.0515
19521SOL    HW160004   6.526   0.707   5.459 -1.0945 -0.1730 -0.3367
19521SOL    HW260005   6.416   0.745   5.556 -0.6816 -1.4315  0.6541
19522SOL     OW60006   7.724   3.615   3.943  0.2336  0.5494  0.2345
19522SOL    HW160007   7.772   3.688   3.982 -0.2261  1.0300 -0.0846
19522SOL    HW260008   7.683   3.571   4.017  3.0545 -1.3367  0.8345
19523SOL     OW60009   5.286   2.305   4.408 -0.0924 -0.1542 -0.0963
19523SOL    HW160010   5.259   2.393   4.385 -0.6723 -0.1095  0.7268
19523SOL    HW260011   5.313   2.311   4.500 -1.5336 -1.1196  0.4208
19524SOL     OW60012   5.661   2.590   3.940 -0.0229 -0.4114  0.1784
19524SOL    HW160013   5.602   2.652   3.984 -0.3013 -1.2232  0.9895
19524SOL    HW260014   5.739   2.642   3.920  0.3409 -0.0958  2.1293
19525SOL     OW60015   6.593   3.772   4.801  0.7312  0.3647  0.5632
19525SOL    HW160016   6.665   3.739   4.854  0.3570 -0.8264  0.3621
19525SOL    HW260017   6.603   3.868   4.802  1.4030  0.2910  1.7985
19526SOL     OW60018   6.331   4.074   4.110 -0.3317  0.0820  1.0491
19526SOL    HW160019   6.407   4.022   4.136  0.1757 -0.2710 -0.9333
19526SOL    HW260020   6.317   4.135   4.182  1.2748 -0.4459  1.8538
19527SOL     OW60021   5.615   3.302   6.802 -0.6837 -0.7207  0.2512
19527SOL    HW160022   5.703   3.268   6.785 -0.3863 -0.3972  1.0747
19527SOL    HW260023   5.594   3.270   6.890 -0.7807  0.4296  0.6566
19528SOL     OW60024   0.658   3.418   1.957 -0.6413  0.1514  0.1789
19528SOL    HW160025   0.635   3.356   2.026 -0.8994  1.0062  0.8859
19528SOL    HW260026   0.578   3.470   1.944 -0.6637 -0.1365 -0.9201
19529SOL     OW60027   5.476   4.066   4.090  0.0751  0.1714  0.6049
19529SOL    HW160028   5.521   4.146   4.116  0.0993  1.4107 -2.8066
19529SOL    HW260029   5.545   4.003   4.070  0.0873 -0.1479  1.5957
19530SOL     OW60030   5.612   4.010   4.960  0.1254 -0.9117 -0.5356
19530SOL    HW160031   5.564   4.083   4.999  1.8056 -0.3163  0.5029
19530SOL    HW260032   5.622   3.947   5.031 -0.9109 -1.9769 -1.3064
19531SOL     OW60033   5.716   0.964   3.918 -0.5137 -1.1999  0.7836
19531SOL    HW160034   5.727   1.012   4.000  1.5200 -0.7166  0.2910
19531SOL    HW260035   5.621   0.956   3.907 -0.8597  0.3138  2.2568
19532SOL     OW60036   7.306   1.762   7.299 -0.0067 -0.4975  0.2095
19532SOL    HW160037   7.377   1.701   7.318 -0.9408 -2.1357 -1.3085
19532SOL    HW260038   7.314   1.830   7.366  2.5774 -0.9581  0.4513
19533SOL     OW60039   6.521   2.095   3.873  0.5112 -0.2552 -0.5406
19533SOL    HW160040   6.554   2.006   3.859 -2.4598 -1.3694 -1.2660
19533SOL    HW260041   6.516   2.134   3.786 -1.5020 -0.7503 -0.7056
19534SOL     OW60042   0.223   2.613   5.259  0.2251 -0.0815  0.0775
19534SOL    HW160043   0.307   2.593   5.302  0.7915  0.3584 -0.7921
19534SOL    HW260044   0.195   2.695   5.299 -1.7821 -2.0726  3.1865
19535SOL     OW60045   5.653   3.516   4.272 -0.2442 -0.1352 -0.5381
19535SOL    HW160046   5.621   3.519   4.362  0.6801 -0.4460 -0.1839
19535SOL    HW260047   5.591   3.570   4.223 -0.0062  1.1468  0.5090
19536SOL     OW60048   1.222   2.617   4.477  0.2441 -0.2521  0.1009
19536SOL    HW160049   1.271   2.688   4.517 -0.1172  0.7008 -1.0715
19536SOL    HW260050   1.135   2.654   4.460  0.8891  0.0767 -3.1900
19537SOL     OW60051   5.966   1.712   4.262 -0.4722  0.2158 -0.0852
19537SOL    HW160052   5.957   1.776   4.333  0.5046  1.0789 -0.7075
19537SOL    HW260053   6.001   1.634   4.305  0.7695  0.9557  0.3081
19538SOL     OW60054   7.056   2.460   5.409 -0.6664  0.3562 -0.0687
19538SOL    HW160055   6.986   2.524   5.425 -0.2878  0.5392  0.9526
19538SOL    HW260056   7.010   2.384   5.374 -1.2181  0.9195 -0.6042
19539SOL     OW60057   0.046   1.880   5.032  0.3599  0.0729 -0.6244
19539SOL    HW160058   0.053   1.972   5.059 -1.7292 -0.1485  0.9046
19539SOL    HW260059   0.042   1.883   4.936 -1.3508  1.7557 -0.5537
19540SOL     OW60060   5.711   1.835   3.889  0.3461 -0.4784 -0.3396
19540SOL    HW160061   5.726   1.930   3.898  0.5485 -0.1813 -2.9692
19540SOL    HW260062   5.616   1.825   3.899  0.0673  0.3136 -1.9408
19541SOL     OW60063   6.221   3.695   6.763  0.1165  0.3700  0.3794
19541SOL    HW160064   6.312   3.701   6.733 -0.1585 -0.4807 -0.6679
19541SOL    HW260065   6.204   3.780   6.804  1.2397  0.7047  0.1965
19542SOL     OW60066   4.749   2.755   5.579 -0.2971  0.1076 -0.5617
19542SOL    HW160067   4.684   2.819   5.611  0.8428  1.0102  0.0124
19542SOL    HW260068   4.803   2.735   5.656 -1.3123 -2.4760 -0.4091
19543SOL     OW60069   7.335   5.086   5.519  0.1069  0.4374  0.0848
19543SOL    HW160070   7.392   5.044   5.583 -2.3581  1.3843  3.1662
19543SOL    HW260071   7.261   5.027   5.510  0.3432  0.3760 -1.9410
19544SOL     OW60072   5.737   2.207   4.236  0.3222  0.6393  0.1478
19544SOL    HW160073   5.777   2.235   4.318 -2.3605  0.0991  1.7723
19544SOL    HW260074   5.672   2.274   4.217 -0.2465 -0.1156 -0.6218
19545SOL     OW60075   6.439   1.528   4.150  0.0626  0.3785  0.1874
19545SOL    HW160076   6.450   1.585   4.075 -1.9260  0.5436 -0.0333
19545SOL    HW260077   6.428   1.440   4.112 -0.0182  0.3241  0.3349
19546SOL     OW60078   5.573   1.338   4.580 -0.1281  0.2473 -0.1291
19546SOL    HW160079   5.531   1.391   4.648  1.5727  3.6236 -1.4797
19546SOL    HW260080   5.527   1.362   4.499 -1.2306 -2.6885 -0.5092
19547SOL     OW60081   5.390   4.228   5.756 -0.2689  0.1876  0.0287
19547SOL    HW160082   5.363   4.287   5.685  1.3782  0.1258 -0.6893
19547SOL    HW260083   5.308   4.207   5.802 -1.4881 -0.2520 -2.1947
19548SOL     OW60084   5.672   3.152   5.090  0.0439 -0.2218 -0.4747
19548SOL    HW160085   5.761   3.177   5.114 -0.9725  1.7019  1.7301
19548SOL    HW260086   5.646   3.215   5.023 -0.3136  0.6045  0.4070
19549SOL     OW60087   5.690   2.658   3.444  0.0028 -0.5022  0.5496
19549SOL    HW160088   5.608   2.621   3.411  0.9594 -0.6333 -1.8806
19549SOL    HW260089   5.664   2.714   3.516 -2.1936 -0.7622  0.0233
19550SOL     OW60090   6.764   2.414   4.676 -0.3595 -0.1844  1.0743
19550SOL    HW160091   6.733   2.504   4.662  0.2189  0.0410  1.2330
19550SOL    HW260092   6.854   2.414   4.644 -0.6320 -0.9379  0.2640
19551SOL     OW60093   6.029   4.460   5.964  0.3475  0.0385 -0.0452
19551SOL    HW160094   5.935   4.451   5.979  0.2623  0.1192 -0.5107
19551SOL    HW260095   6.045   4.411   5.883  0.7966 -0.4096  0.3075
19552SOL     OW60096   6.313   5.371   4.070  0.1585 -0.8393  0.0720
19552SOL    HW160097   6.350   5.360   4.157  1.1990  0.3504 -0.1864
19552SOL    HW260098   6.359   5.307   4.015 -0.5029 -1.5928  0.3834
19553SOL     OW60099   5.062   1.601   5.933 -0.0959 -0.9602  0.4474
19553SOL    HW160100   5.002   1.661   5.977 -0.1325 -0.1140 -0.7248
19553SOL    HW260101   5.050   1.518   5.979 -1.4523 -0.5596  0.8629
19554SOL     OW60102   7.113   3.270   4.211 -0.4070  0.0474 -0.1052
19554SOL    HW160103   7.192   3.280   4.265 -1.4295  0.3778  1.3868
19554SOL    HW260104   7.082   3.181   4.229 -1.8705  0.8294  1.4794
19555SOL     OW60105   2.117   3.896   6.062  0.3952  0.3135  0.3082
19555SOL    HW160106   2.173   3.857   6.129 -0.1638  1.6064  1.6052
19555SOL    HW260107   2.070   3.822   6.024  0.0592 -0.3995  2.0026
19556SOL     OW60108   5.979   2.961   6.282  0.1961  0.1675  0.0454
19556SOL    HW160109   6.025   3.028   6.334  1.4492  0.1646 -1.0311
19556SOL    HW260110   5.914   3.011   6.232  1.3064  0.6409 -0.9575
19557SOL     OW60111   7.191   1.401   5.694  0.2251 -0.2851 -0.4632
19557SOL    HW160112   7.165   1.312   5.671 -0.5475 -0.8251  2.1446
19557SOL    HW260113   7.154   1.456   5.625  0.0434 -1.8926 -1.6992
19558SOL     OW60114   7.351   3.810   5.998 -0.6232  0.1593  0.3305
19558SOL    HW160115   7.323   3.730   6.043 -0.1968 -0.0766  0.1920
19558SOL    HW260116   7.291   3.878   6.029 -1.1737 -0.2737  0.2346
19559SOL     OW60117   5.916   2.706   6.333  0.1550 -0.1580  0.0562
19559SOL    HW160118   5.882   2.698   6.244  0.1019 -1.9606  0.2088
19559SOL    HW260119   5.948   2.796   6.338 -1.7466  0.6563 -1.0856
19560SOL     OW60120   6.362   2.630   4.982 -0.2437  0.5288 -0.2135
19560SOL    HW160121   6.415   2.563   4.938  0.1467  0.9653 -0.4222
19560SOL    HW260122   6.287   2.582   5.017 -0.9872  0.2679 -2.0140
19561SOL     OW60123   5.181   0.534   4.403  0.2526  0.2558 -0.3795
19561SOL    HW160124   5.200   0.529   4.309 -1.8541 -1.1924 -0.7881
19561SOL    HW260125   5.195   0.445   4.435 -0.8438  0.2985  0.2654
19562SOL     OW60126   6.200   2.034   3.698 -0.2213  0.8658  0.6673
19562SOL    HW160127   6.152   2.090   3.636 -1.2478  2.1869  2.5503
19562SOL    HW260128   6.170   2.063   3.784  1.0552 -0.9970  1.8022
19563SOL     OW60129   7.184   2.309   3.541  0.2395  0.9996  0.4827
19563SOL    HW160130   7.278   2.293   3.539  0.3498  1.3750  1.9077
19563SOL    HW260131   7.147   2.238   3.489  1.2941  0.8140 -0.0511
19564SOL     OW60132   5.139   0.587   5.064  0.9058 -0.1319  0.1085
19564SOL    HW160133   5.133   0.593   4.969 -1.1056 -0.3232  0.1887
19564SOL    HW260134   5.147   0.493   5.082 -1.1905 -0.3335  0.1902
19565SOL     OW60135   5.084   4.151   4.449  0.1392  0.6402 -0.5125
19565SOL    HW160136   5.141   4.213   4.495  1.9471 -2.3145  1.6107
19565SOL    HW260137   5.000   4.195   4.442  2.1573  4.6489 -2.4178
19566SOL     OW60138   6.069   2.236   6.155 -0.4426 -0.0459  0.4954
19566SOL    HW160139   6.079   2.264   6.064 -0.9527 -0.8498  0.1841
19566SOL    HW260140   6.038   2.314   6.201  3.1437  1.4684  0.7243
19567SOL     OW60141   7.806   2.822   4.879 -0.4469 -0.3344  0.3769
19567SOL    HW160142   7.776   2.760   4.947 -2.4540  0.0906 -0.0603
19567SOL    HW260143   7.898   2.837   4.900 -0.4838 -1.7656  1.8061
19568SOL     OW60144   5.412   1.458   6.150  0.1676  0.1326  0.0580
19568SOL    HW160145   5.507   1.454   6.147  0.1354 -0.0527 -1.4627
19568SOL    HW260146   5.391   1.550   6.137  0.1217  0.1036 -0.0708
19569SOL     OW60147   5.150   2.239   2.794  0.6297 -0.1298  0.1955
19569SOL    HW160148   5.210   2.168   2.815  3.6089  2.0219 -0.3313
19569SOL    HW260149   5.135   2.232   2.700 -0.3186 -0.9019  0.3934
19570SOL     OW60150   5.077   0.198   3.408 -0.3740  0.3959  0.3742
19570SOL    HW160151   4.988   0.175   3.432 -0.4198  1.3007  1.1626
19570SOL    HW260152   5.124   0.203   3.492  0.8131 -1.5333 -0.1129
19571SOL     OW60153   5.284   2.328   5.114  0.1086 -0.1414 -0.5011
19571SOL    HW160154   5.341   2.257   5.086  1.3368  0.3104  0.7333
19571SOL    HW260155   5.272   2.314   5.208 -1.1836  0.2360 -0.5809
19572SOL     OW60156   7.618   3.992   4.255 -0.6279  0.0108  0.5363
19572SOL    HW160157   7.669   4.072   4.243 -1.4888  0.5293  0.2713
19572SOL    HW260158   7.666   3.943   4.322  1.1983 -0.3389 -0.9314
19573SOL     OW60159   6.090   3.418   6.186 -0.0073 -0.2832 -0.1028
19573SOL    HW160160   6.062   3.509   6.195 -1.5796 -0.8371  1.0142
19573SOL    HW260161   6.154   3.419   6.115 -0.0890  1.6676 -0.1835
19574SOL     OW60162   6.861   2.346   3.764 -0.0266 -0.2743  0.0340
19574SOL    HW160163   6.948   2.383   3.773 -0.7001  1.3525  0.2333
19574SOL    HW260164   6.830   2.378   3.679 -0.2872 -1.1789 -0.2275
19575SOL     OW60165   6.344   1.944   4.547 -0.0095 -0.1206  0.4504
19575SOL    HW160166   6.346   1.979   4.636 -0.6886  0.3890  0.2687
19575SOL    HW260167   6.272   1.990   4.504 -1.0858 -1.8725  0.2600
19576SOL     OW60168   4.772   3.151   4.871 -0.1033 -0.7931  0.7344
19576SOL    HW160169   4.794   3.232   4.826 -1.1933  0.7328  2.7931
19576SOL    HW260170   4.682   3.163   4.900 -0.9413 -3.4940 -0.3705
19577SOL     OW60171   7.663   2.147   5.263 -0.3744 -0.0393 -0.1652
19577SOL    HW160172   7.716   2.226   5.268  1.2304 -1.1019  0.5337
19577SOL    HW260173   7.698   2.099   5.188 -1.7137  0.1478 -0.9436
19578SOL     OW60174   6.530   1.493   4.794 -0.0215  0.1558  0.2895
19578SOL    HW160175   6.443   1.513   4.761  0.0579 -0.4989 -0.3415
19578SOL    HW260176   6.580   1.466   4.716  0.6906  0.3553  0.6676
19579SOL     OW60177   4.533   1.581   5.754  0.2477 -0.4054 -0.5669
19579SOL    HW160178   4.581   1.617   5.680  0.0812 -1.3768 -1.1626
19579SOL    HW260179   4.479   1.654   5.786  0.2889  0.0053 -1.4169
19580SOL     OW60180   5.921   3.584   7.903  0.5910 -0.3583  0.0582
19580SOL    HW160181   5.906   3.649   7.834  0.0842 -0.6375 -0.0943
19580SOL    HW260182   5.833   3.563   7.936  0.7396 -1.0996 -0.0102
19581SOL     OW60183   4.445   2.791   3.397  0.4544  0.2577 -0.2910
19581SOL    HW160184   4.439   2.805   3.492 -1.6027  1.4650 -0.5380
19581SOL    HW260185   4.508   2.720   3.387  1.6038  0.8718  1.9061
19582SOL     OW60186   6.004   4.041   4.557  0.0787 -0.3966 -0.2684
19582SOL    HW160187   5.943   4.050   4.631  0.3379  2.1992 -0.2761
19582SOL    HW260188   5.977   3.960   4.514 -0.0408 -2.0607  2.6675
19583SOL     OW60189   5.209   4.338   3.755  0.8531  0.2707 -0.0999
19583SOL    HW160190   5.219   4.426   3.791 -0.0111  0.1279  0.5274
19583SOL    HW260191   5.212   4.281   3.832  1.7125 -0.2832 -0.5315
19584SOL     OW60192   5.535   2.018   4.216  0.0815 -0.6542  0.0681
19584SOL    HW160193   5.610   2.078   4.213  0.3599 -0.9821  0.4339
19584SOL    HW260194   5.520   1.995   4.124  0.7537 -0.9848  0.0334
19585SOL     OW60195   5.504   3.053   5.328 -0.0916  0.0006  0.2184
19585SOL    HW160196   5.448   3.130   5.339  0.8068  0.6574  0.3011
19585SOL    HW260197   5.558   3.072   5.251 -1.2709 -1.4500 -1.0477
19586SOL     OW60198   5.555   2.282   5.219  0.0856  0.0014  0.1238
19586SOL    HW160199   5.592   2.339   5.287  1.7046 -0.6961 -0.1279
19586SOL    HW260200   5.505   2.217   5.268 -0.0008  0.3879  0.5556
19587SOL     OW60201   6.244   3.490   8.335 -0.4519  0.0605  0.9859
19587SOL    HW160202   6.213   3.518   8.249  1.5111  0.6641  0.4229
19587SOL    HW260203   6.282   3.403   8.319 -0.7105 -0.1281  1.3948
19588SOL     OW60204   5.530   2.406   3.738  0.0924  0.4769 -0.0256
19588SOL    HW160205   5.478   2.479   3.707  1.8924  1.8563  0.0706
19588SOL    HW260206   5.587   2.443   3.805 -0.2476 -1.4117  1.4088
19589SOL     OW60207   6.003   2.353   5.572 -0.0972 -0.4828  0.1685
19589SOL    HW160208   5.970   2.277   5.524  0.6678 -0.5416 -0.2781
19589SOL    HW260209   6.095   2.358   5.549 -0.1439  0.6202  0.1422
19590SOL     OW60210   6.298   4.441   7.478  0.5855 -0.3717 -0.5611
19590SOL    HW160211   6.231   4.415   7.415 -1.1596  1.3760  0.4437
19590SOL    HW260212   6.281   4.387   7.555  0.5146 -0.1243 -0.4023
19591SOL     OW60213   6.607   1.662   5.971 -0.4660  0.4766 -0.2041
19591SOL    HW160214   6.652   1.744   5.992 -0.5593  0.4354  0.1589
19591SOL    HW260215   6.572   1.631   6.055  0.0446 -0.2275 -0.2437
19592SOL     OW60216   7.048   1.725   5.878 -0.2385  0.1524 -0.2796
19592SOL    HW160217   7.068   1.636   5.906  0.5391  0.1483 -0.8247
19592SOL    HW260218   7.044   1.776   5.959 -2.8705 -0.7593  0.2629
19593SOL     OW60219   5.865   3.045   3.963 -0.1691 -0.6580 -0.1041
19593SOL    HW160220   5.777   3.037   3.925 -0.4423 -2.6252  0.8213
19593SOL    HW260221   5.924   3.041   3.887 -0.8629  0.8301 -0.7441
19594SOL     OW60222   6.434   4.679   4.171 -0.0628  0.2304  0.3277
19594SOL    HW160223   6.529   4.670   4.159 -0.0672 -1.1972  1.1119
19594SOL    HW260224   6.398   4.597   4.138 -1.1493  1.1595 -0.9086
19595SOL     OW60225   5.667   3.451   6.556  0.3568  0.6107 -0.9266
19595SOL    HW160226   5.750   3.429   6.512  0.4417  0.4707 -0.6959
19595SOL    HW260227   5.659   3.387   6.626  0.7483  1.4826 -0.0731
19596SOL     OW60228   6.847   2.597   3.568  0.3182  0.0353 -0.0912
19596SOL    HW160229   6.904   2.671   3.590 -0.6871  0.8778 -0.2284
19596SOL    HW260230   6.864   2.580   3.476  0.0796  0.5474 -0.2372
19597SOL     OW60231   0.109   4.344   4.636  0.2091 -0.4869  0.3350
19597SOL    HW160232   0.137   4.368   4.724 -0.1797  1.0450  0.0802
19597SOL    HW260233   0.023   4.305   4.647 -0.1367  0.3302  0.5853
19598SOL     OW60234   7.436   4.245   4.415  1.0513  0.4715 -0.1832
19598SOL    HW160235   7.398   4.332   4.423  1.7631  0.8105 -0.3770
19598SOL    HW260236   7.528   4.256   4.440  1.2662 -0.1203 -0.6692
19599SOL     OW60237   6.884   2.151   4.980  0.3879  0.4330 -0.6120
19599SOL    HW160238   6.830   2.147   5.059  2.2739 -1.5843  0.6825
19599SOL    HW260239   6.957   2.210   5.003  0.9640 -0.1860 -0.8212
19600SOL     OW60240   4.323   3.006   6.448 -0.4188 -0.9536 -0.1825
19600SOL    HW160241   4.302   2.913   6.440 -0.7272 -0.7979 -1.6074
19600SOL    HW260242   4.255   3.042   6.505 -0.7852 -1.4677 -0.2898
19601SOL     OW60243   6.280   2.264   3.887  0.2083  0.1992  0.2172
19601SOL    HW160244   6.351   2.201   3.874 -1.1621 -1.8019  1.6603
19601SOL    HW260245   6.265   2.264   3.981 -2.1023  0.0198 -0.0894
19602SOL     OW60246   6.756   2.660   4.933  0.7525 -0.6875  0.7522
19602SOL    HW160247   6.756   2.571   4.968  1.3269 -0.7006  0.7288
19602SOL    HW260248   6.760   2.647   4.838  2.2832 -0.6302  0.7983
19603SOL     OW60249   5.579   5.277   5.569  0.2849  0.7028  0.0966
19603SOL    HW160250   5.640   5.203   5.574 -1.5140 -0.9240 -0.8017
19603SOL    HW260251   5.498   5.240   5.535 -1.0211  2.9251  0.5389
19604SOL     OW60252   4.926   0.879   6.350  0.0666 -0.4491  0.0158
19604SOL    HW160253   4.927   0.966   6.390 -0.2386  0.8138 -2.5258
19604SOL    HW260254   5.007   0.875   6.298 -1.1350 -0.5821 -1.9626
19605SOL     OW60255   5.471   1.984   6.651  0.1940 -0.4583  0.3130
19605SOL    HW160256   5.566   1.995   6.656  0.2109 -1.0424  1.6666
19605SOL    HW260257   5.436   2.067   6.684  0.2251 -0.1236 -0.4847
19606SOL     OW60258   6.394   4.501   3.075 -0.0364 -0.1549 -0.0981
19606SOL    HW160259   6.311   4.504   3.124  0.1787 -1.9954  0.4949
19606SOL    HW260260   6.438   4.422   3.109  2.2005  1.0516 -0.0269
19607SOL     OW60261   6.804   3.728   5.029 -0.1741 -0.9975  0.3528
19607SOL    HW160262   6.743   3.703   5.099  1.2816  0.5263  2.2980
19607SOL    HW260263   6.862   3.653   5.019 -1.5226 -1.9436 -0.5789
19608SOL     OW60264   6.566   2.728   3.210 -0.5168 -0.0201  0.3761
19608SOL    HW160265   6.600   2.808   3.251 -2.1487  0.0857  1.6126
19608SOL    HW260266   6.512   2.688   3.278 -0.2981 -1.8251 -0.4670
19609SOL     OW60267   6.554   1.573   6.209 -0.0818  0.1835  0.1526
19609SOL    HW160268   6.553   1.575   6.305  1.4802  2.2943  0.2146
19609SOL    HW260269   6.632   1.522   6.187 -0.4100 -0.2544  0.0158
19610SOL     OW60270   6.147   2.738   3.833 -0.2194 -0.3451 -0.3188
19610SOL    HW160271   6.158   2.760   3.740 -0.7481 -1.6209 -0.7082
19610SOL    HW260272   6.195   2.655   3.843  0.1428 -0.0308  0.6465
19611SOL     OW60273   7.654   1.501   5.388 -0.4247 -0.1512  0.0235
19611SOL    HW160274   7.617   1.482   5.475 -2.4013  1.2332 -0.4365
19611SOL    HW260275   7.615   1.435   5.331  0.5646 -0.8163  0.1022
19612SOL     OW60276   6.709   2.590   4.281  0.4491  0.0088 -0.0770
19612SOL    HW160277   6.668   2.640   4.210  0.1034  0.3477  0.3575
19612SOL    HW260278   6.636   2.558   4.334  0.7436  0.8561  0.8655
19613SOL     OW60279   5.328   2.488   4.098 -0.3358 -0.2847 -0.0227
19613SOL    HW160280   5.283   2.505   4.181  0.1492  0.1072  0.1695
19613SOL    HW260281   5.420   2.480   4.122 -0.2175 -0.3789 -0.4976
19614SOL     OW60282   6.110   3.861   5.731  0.0109  0.1661 -0.5390
19614SOL    HW160283   6.092   3.772   5.702  0.2271 -0.2286  0.4874
19614SOL    HW260284   6.032   3.888   5.778 -0.6059  1.0509 -2.0061
19615SOL     OW60285   5.895   4.411   4.187 -0.0373 -0.2438 -0.2552
19615SOL    HW160286   5.900   4.389   4.280 -0.0546  0.4938 -0.0804
19615SOL    HW260287   5.889   4.506   4.185 -0.4982 -0.2845 -0.9924
19616SOL     OW60288   7.335   3.918   5.048  0.2427  0.0598  0.3077
19616SOL    HW160289   7.339   3.938   5.141 -0.7577  1.7444  0.0382
19616SOL    HW260290   7.424   3.935   5.016  0.2345  0.9029  0.7065
19617SOL     OW60291   6.132   2.652   5.474 -0.0339  0.2665 -0.5080
19617SOL    HW160292   6.179   2.573   5.446  0.9285  0.4625  0.4853
19617SOL    HW260293   6.040   2.631   5.461  0.2836 -0.4491 -1.7019
19618SOL     OW60294   6.245   3.247   2.833 -0.4251  0.0503  1.1158
19618SOL    HW160295   6.304   3.267   2.761 -0.9296 -0.8260  0.4372
19618SOL    HW260296   6.301   3.247   2.911  1.0963 -3.3121  0.2264
19619SOL     OW60297   6.546   2.817   5.683  0.8176  0.4565 -0.2397
19619SOL    HW160298   6.632   2.858   5.675  0.9187  0.0586 -1.3330
19619SOL    HW260299   6.565   2.724   5.690  0.4638  0.3108 -1.1026
19620SOL     OW60300   6.208   1.290   3.719  0.1992  0.2795  0.3814
19620SOL    HW160301   6.223   1.195   3.725 -2.4977 -0.3534 -1.1850
19620SOL    HW260302   6.277   1.328   3.774  1.4647 -2.5527  0.9800
19621SOL     OW60303   5.603   2.884   6.261 -0.1906  0.3144 -0.5072
19621SOL    HW160304   5.541   2.835   6.314  1.5889 -0.7497  0.7062
19621SOL    HW260305   5.620   2.963   6.312 -0.4784  0.5629 -0.7950
19622SOL     OW60306   7.497   1.586   5.995 -0.2345 -0.3022 -0.2794
19622SOL    HW160307   7.490   1.587   5.900 -0.2490  0.0368 -0.2743
19622SOL    HW260308   7.426   1.643   6.025  0.1243  0.0454 -0.0856
19623SOL     OW60309   3.470   1.244   4.196 -0.4892 -0.1039  0.2633
19623SOL    HW160310   3.400   1.182   4.214 -0.4128 -0.6452 -1.1676
19623SOL    HW260311   3.442   1.290   4.117  0.3474  0.3083  0.1891
19624SOL     OW60312   5.289   1.820   4.426  0.4192 -0.6174 -0.0338
19624SOL    HW160313   5.249   1.757   4.366 -1.4767 -0.4085  0.9651
19624SOL    HW260314   5.238   1.813   4.506  0.0760  2.2808  0.0750
19625SOL     OW60315   4.211   2.394   3.985  0.2034 -0.1448 -0.3274
19625SOL    HW160316   4.256   2.470   4.024 -0.7672  1.5690 -2.3189
19625SOL    HW260317   4.120   2.404   4.012 -0.5665  1.2700 -3.0236
19626SOL     OW60318   6.379   2.847   4.825  0.0751 -0.2972 -0.3789
19626SOL    HW160319   6.377   2.925   4.881 -1.3995 -0.2522 -0.4535
19626SOL    HW260320   6.367   2.774   4.885 -0.5561 -0.3160 -0.5223
19627SOL     OW60321   5.988   1.442   6.060  0.0294 -0.3948 -0.1669
19627SOL    HW160322   6.079   1.431   6.031 -0.2026  0.0531 -1.1109
19627SOL    HW260323   5.984   1.395   6.143  1.3375  0.2896  0.3180
19628SOL     OW60324   0.331   4.584   5.105 -0.4690 -0.1279  0.2571
19628SOL    HW160325   0.339   4.679   5.115  0.5975 -0.0984 -0.6657
19628SOL    HW260326   0.280   4.556   5.181 -1.1084  1.2210  0.3566
19629SOL     OW60327   7.159   1.900   4.814  0.1293  0.7785  0.1335
19629SOL    HW160328   7.136   1.991   4.800 -2.9562  0.5457  2.5965
19629SOL    HW260329   7.105   1.872   4.888  0.6958 -3.1564 -0.6870
19630SOL     OW60330   5.719   4.281   4.555  0.1770  0.0109  0.3696
19630SOL    HW160331   5.690   4.274   4.645 -0.3100 -2.0411  0.1069
19630SOL    HW260332   5.648   4.325   4.509  0.8987  2.0925  1.1384
19631SOL     OW60333   5.746   2.292   6.073 -0.3400  0.2156  0.6119
19631SOL    HW160334   5.663   2.334   6.095 -0.1155  1.6271 -1.0243
19631SOL    HW260335   5.806   2.365   6.059  0.6026 -0.7287 -0.3935
19632SOL     OW60336   5.878   2.720   3.914 -0.2936 -0.1036 -0.7204
19632SOL    HW160337   5.973   2.718   3.900  0.0558  0.5728  1.2394
19632SOL    HW260338   5.851   2.805   3.879 -0.6226 -1.1730 -3.3395
19633SOL     OW60339   7.646   4.512   3.947 -0.2391  0.1873 -0.0985
19633SOL    HW160340   7.623   4.574   4.016 -1.6108 -1.0330  0.5779
19633SOL    HW260341   7.563   4.488   3.907  0.4668  0.2978 -1.7083
19634SOL     OW60342   6.315   3.642   5.111  0.1731  0.1164 -0.2625
19634SOL    HW160343   6.229   3.682   5.118 -1.4384 -3.1937  0.4398
19634SOL    HW260344   6.321   3.613   5.020 -0.1027 -0.9608  0.0545
19635SOL     OW60345   7.443   1.931   5.061 -0.8273  0.0690 -0.0388
19635SOL    HW160346   7.467   2.021   5.039 -2.0691  0.3287 -0.3805
19635SOL    HW260347   7.499   1.909   5.136 -0.6213  1.1766  0.1466
19636SOL     OW60348   6.848   2.934   5.716 -0.0175 -0.2152  1.0058
19636SOL    HW160349   6.906   2.896   5.782 -0.1500  0.4948  1.5505
19636SOL    HW260350   6.895   2.924   5.633  0.5426 -0.3388  1.3312
19637SOL     OW60351   5.300   3.938   3.636 -1.0045 -0.1480 -0.2440
19637SOL    HW160352   5.331   3.996   3.567  0.1095 -1.4913 -0.9259
19637SOL    HW260353   5.238   3.879   3.592 -3.1002  1.2388  0.6968
19638SOL     OW60354   7.133   3.376   2.759 -0.3796  0.1704  0.1123
19638SOL    HW160355   7.187   3.304   2.728 -0.1591 -0.2252  1.3723
19638SOL    HW260356   7.048   3.364   2.715  0.1842  0.1461 -0.9956
19639SOL     OW60357   7.956   3.767   4.291 -0.2286  0.1450 -0.2736
19639SOL    HW160358   7.970   3.852   4.333 -0.7619  0.0956  0.0090
19639SOL    HW260359   7.877   3.778   4.238 -0.2862 -0.1667 -0.2556
19640SOL     OW60360   5.740   5.076   4.754  0.6283  0.3084 -0.1287
19640SOL    HW160361   5.809   5.142   4.754  0.4013  0.5460 -0.2245
19640SOL    HW260362   5.767   5.014   4.686 -0.4604  1.6878 -1.9161
19641SOL     OW60363   5.326   3.583   4.423 -0.0218  0.2475  0.6256
19641SOL    HW160364   5.377   3.650   4.468  1.4846 -0.3459 -0.1392
19641SOL    HW260365   5.297   3.525   4.493 -2.4446  2.2839  1.4858
19642SOL     OW60366   6.510   3.293   5.880 -0.0372  0.0473  0.3238
19642SOL    HW160367   6.527   3.330   5.793 -1.8995 -0.2640 -0.2143
19642SOL    HW260368   6.517   3.199   5.868  1.9685  0.0492  1.0759
19643SOL     OW60369   6.936   4.350   4.524 -0.2560 -0.4160  0.4309
19643SOL    HW160370   6.907   4.350   4.615  2.2706  0.1213  1.3193
19643SOL    HW260371   6.920   4.439   4.493  0.1134 -0.2279  0.7836
19644SOL     OW60372   5.515   0.799   5.188 -0.4675  0.0226 -0.1248
19644SOL    HW160373   5.476   0.886   5.186  0.0017  0.2301 -0.2449
19644SOL    HW260374   5.481   0.756   5.110  1.0275  0.8520 -1.2741
19645SOL     OW60375   6.859   5.011   5.381 -0.4868  0.0846  0.5731
19645SOL    HW160376   6.893   5.099   5.364  1.4002 -0.9420 -1.4518
19645SOL    HW260377   6.864   4.967   5.297 -3.0724 -1.4832  1.1346
19646SOL     OW60378   5.774   2.722   5.628 -0.5469  0.2236  0.3360
19646SOL    HW160379   5.796   2.696   5.539 -2.6035 -1.2198  0.1717
19646SOL    HW260380   5.788   2.644   5.681 -0.6492  0.6599  1.0346
19647SOL     OW60381   6.036   3.673   3.403 -0.2775 -0.0052 -0.6670
19647SOL    HW160382   6.035   3.678   3.499 -1.3482  1.4362 -0.7299
19647SOL    HW260383   5.961   3.725   3.375  0.1483 -0.2198 -2.3151
19648SOL     OW60384   4.778   2.141   3.356 -0.1790  0.4458 -0.1122
19648SOL    HW160385   4.736   2.058   3.336 -0.3338  0.5936 -0.4021
19648SOL    HW260386   4.821   2.126   3.441  1.9397 -0.7466 -1.3058
19649SOL     OW60387   6.886   7.844   4.587  0.8379  0.4035  0.7673
19649SOL    HW160388   6.923   7.810   4.505  2.5662  3.7654 -0.0605
19649SOL    HW260389   6.949   7.819   4.654 -0.2750 -1.8449  1.0535
19650SOL     OW60390   5.976   2.659   2.863  1.0475 -0.3921  0.3971
19650SOL    HW160391   5.885   2.689   2.862  0.2255 -2.6380 -0.6524
19650SOL    HW260392   6.019   2.707   2.792  0.4082 -0.0536  0.2357
19651SOL     OW60393   7.940   4.240   6.146  0.3422 -0.4958 -0.2774
19651SOL    HW160394   7.908   4.170   6.088 -0.3091 -0.7133  0.3280
19651SOL    HW260395   8.024   4.208   6.178  0.8724 -0.2296 -1.3495
19652SOL     OW60396   6.285   1.031   3.753  0.0826  0.1046 -0.2134
19652SOL    HW160397   6.362   1.048   3.808  0.0715  0.4715 -0.3102
19652SOL    HW260398   6.322   1.012   3.666  0.2628 -2.8703  0.4043
19653SOL     OW60399   1.039   2.538   3.946 -0.2619 -0.1849  0.1502
19653SOL    HW160400   0.981   2.467   3.918  0.5095 -0.5065 -0.6622
19653SOL    HW260401   1.026   2.607   3.881  0.9985 -0.6523 -0.6265
19654SOL     OW60402   6.185   2.569   3.435 -0.2409  0.2104 -0.3021
19654SOL    HW160403   6.206   2.659   3.459 -0.9636 -0.1120  1.7704
19654SOL    HW260404   6.267   2.521   3.448 -0.2032  0.3385 -0.0555
19655SOL     OW60405   5.084   1.719   4.799 -0.0714 -0.4170 -0.1836
19655SOL    HW160406   5.143   1.786   4.765  1.0816 -1.6197 -0.6273
19655SOL    HW260407   5.090   1.647   4.736 -1.6123 -0.7911  0.0479
19656SOL     OW60408   5.925   3.730   2.698 -0.3248  0.0257 -0.3372
19656SOL    HW160409   5.960   3.666   2.636  2.1965  0.5695  0.4206
19656SOL    HW260410   5.864   3.679   2.752 -0.9926 -0.9114 -1.8847
19657SOL     OW60411   4.297   2.385   5.710 -0.0162 -0.1882  0.0251
19657SOL    HW160412   4.300   2.461   5.768 -0.1174  0.8859 -1.3264
19657SOL    HW260413   4.361   2.404   5.641 -0.6907 -0.9116 -0.8277
19658SOL     OW60414   7.796   3.135   5.729 -0.3434 -0.0666 -0.2711
19658SOL    HW160415   7.794   3.138   5.824  1.6032 -1.1370 -0.1355
19658SOL    HW260416   7.811   3.226   5.702  1.2816 -0.0415  0.5908
19659SOL     OW60417   5.794   1.693   7.029  0.3046  0.5029 -0.5503
19659SOL    HW160418   5.734   1.643   6.974 -0.1883 -0.9680  1.2696
19659SOL    HW260419   5.748   1.775   7.046  0.2183  0.7364 -1.8035
19660SOL     OW60420   5.679   3.897   8.506 -0.4992 -0.0158  0.9031
19660SOL    HW160421   5.644   3.927   8.589 -0.8237 -0.7084  1.0235
19660SOL    HW260422   5.601   3.874   8.454 -0.3679  1.4891 -0.0250
19661SOL     OW60423   7.030   2.345   7.375 -0.0195  0.0396 -0.0332
19661SOL    HW160424   6.945   2.315   7.408 -0.4453  0.5548 -0.6407
19661SOL    HW260425   7.019   2.439   7.363  0.6939  0.1342  0.0367
19662SOL     OW60426   0.831   1.448   7.213 -0.3763 -0.2099  0.4404
19662SOL    HW160427   0.870   1.507   7.149  0.8600 -0.6295  0.7732
19662SOL    HW260428   0.835   1.362   7.172  1.9307 -0.7546  1.6630
19663SOL     OW60429   6.842   3.286   5.197 -0.5350 -0.1788 -0.5410
19663SOL    HW160430   6.793   3.256   5.120  0.6920 -2.8507 -0.4306
19663SOL    HW260431   6.917   3.226   5.201 -0.1502  0.3772  2.3172
19664SOL     OW60432   6.590   1.371   7.373  0.7105 -0.4353  0.1392
19664SOL    HW160433   6.680   1.387   7.402  1.3513 -0.3035 -1.7885
19664SOL    HW260434   6.540   1.366   7.454  2.3316  0.1842  1.2408
19665SOL     OW60435   7.768   2.250   7.217 -0.1151 -0.6823 -0.1974
19665SOL    HW160436   7.697   2.201   7.176 -0.1184  0.5145 -1.6985
19665SOL    HW260437   7.848   2.212   7.180 -0.0902 -0.0443 -0.7979
19666SOL     OW60438   0.189   3.311   4.674 -0.2738 -0.5228 -0.3658
19666SOL    HW160439   0.167   3.222   4.699  0.8645 -0.8302 -0.4234
19666SOL    HW260440   0.281   3.321   4.698 -0.5371  0.8201  0.1545
19667SOL     OW60441   7.492   0.709   8.636  0.2069 -0.5249  0.1695
19667SOL    HW160442   7.451   0.780   8.587 -1.9286 -0.5113  1.8206
19667SOL    HW260443   7.520   0.647   8.569 -1.8446 -0.1329 -1.1443
19668SOL     OW60444   5.733   4.026   7.096  0.1916  0.3417  0.5014
19668SOL    HW160445   5.767   4.097   7.152  0.3855  0.9804 -0.4031
19668SOL    HW260446   5.697   4.071   7.020  0.9269 -0.5799 -0.4132
19669SOL     OW60447   7.225   2.138   7.568 -0.6644  0.1817  0.4098
19669SOL    HW160448   7.315   2.169   7.572 -0.8023  0.6908 -0.1953
19669SOL    HW260449   7.174   2.206   7.612 -1.3556  2.5189 -3.4990
19670SOL     OW60450   6.137   2.264   5.884 -0.4009  0.1690  0.4697
19670SOL    HW160451   6.198   2.210   5.833 -1.1260  0.1391 -0.3935
19670SOL    HW260452   6.054   2.256   5.838 -1.0167  0.3898  1.5019
19671SOL     OW60453   7.788   3.380   5.624  0.1494  0.5473  0.4698
19671SOL    HW160454   7.707   3.400   5.670 -1.3023 -2.4547 -0.5097
19671SOL    HW260455   7.766   3.387   5.531  1.3408  0.7778  0.1802
19672SOL     OW60456   6.343   3.373   6.959 -0.6495  0.0648 -0.6200
19672SOL    HW160457   6.367   3.287   6.993 -1.5273  0.2644  0.5592
19672SOL    HW260458   6.401   3.434   7.003 -0.0665  0.0994 -1.4139
19673SOL     OW60459   5.997   1.866   9.041 -0.4180 -0.0187 -0.4085
19673SOL    HW160460   5.976   1.933   9.107 -1.1034  1.3552 -1.9340
19673SOL    HW260461   6.039   1.796   9.090  0.4553  1.5828  1.2666
19674SOL     OW60462   5.823   3.467   6.938  0.1861  0.5200 -0.1037
19674SOL    HW160463   5.742   3.424   6.963 -0.2514  1.5034  0.2058
19674SOL    HW260464   5.872   3.400   6.889 -0.7906 -0.0813 -0.2696
19675SOL     OW60465   5.023   3.192   5.817  0.1547  0.0963  0.5191
19675SOL    HW160466   4.946   3.139   5.795  1.0783 -0.8311 -0.6618
19675SOL    HW260467   4.988   3.279   5.835 -0.9960  0.2494 -2.0472
19676SOL     OW60468   5.905   3.420   6.459 -1.0054  0.4254  0.1071
19676SOL    HW160469   5.950   3.496   6.496 -1.4237  1.9926 -2.3457
19676SOL    HW260470   5.970   3.381   6.400 -0.6400 -1.4660  1.6784
19677SOL     OW60471   6.476   2.233   6.931  0.3607  0.1757 -0.6984
19677SOL    HW160472   6.555   2.265   6.975  0.2406  0.1757 -0.4807
19677SOL    HW260473   6.468   2.142   6.959 -0.2455  0.4474  0.0480
19678SOL     OW60474   6.769   3.781   6.621  0.3478  0.4434  0.1992
19678SOL    HW160475   6.705   3.711   6.636 -1.6632  2.0921 -0.3245
19678SOL    HW260476   6.796   3.769   6.529  0.2335  0.2072  0.1947
19679SOL     OW60477   6.828   2.832   6.630 -0.1327 -0.2135  0.5330
19679SOL    HW160478   6.815   2.879   6.547  0.9858 -1.4424 -0.3906
19679SOL    HW260479   6.918   2.850   6.654 -0.4282  0.0616  1.4574
19680SOL     OW60480   7.527   4.435   4.885 -0.2313  0.5060 -0.6686
19680SOL    HW160481   7.564   4.479   4.809  0.3888  0.0851 -0.6126
19680SOL    HW260482   7.433   4.428   4.866 -0.2581  1.4189 -0.8835
19681SOL     OW60483   4.922   4.748   6.105  0.2678 -0.2180 -0.0099
19681SOL    HW160484   4.910   4.722   6.196 -1.1761 -1.3804 -0.4970
19681SOL    HW260485   4.855   4.699   6.056 -0.3809  1.9269 -1.4387
19682SOL     OW60486   7.874   1.812   5.236 -0.4132  0.3733 -0.0276
19682SOL    HW160487   7.929   1.819   5.157 -0.6093  0.7329 -0.1329
19682SOL    HW260488   7.913   1.874   5.297  0.3509 -0.6175  0.5336
19683SOL     OW60489   7.254   2.452   6.382 -0.0749 -1.1007  0.2392
19683SOL    HW160490   7.329   2.398   6.407 -0.3027 -1.5603 -0.0490
19683SOL    HW260491   7.281   2.493   6.299  1.0390  1.1421  1.6338
19684SOL     OW60492   5.909   3.383   8.880 -0.0081 -0.5265  0.2460
19684SOL    HW160493   5.851   3.307   8.875 -0.4270 -0.2484  0.6837
19684SOL    HW260494   5.927   3.406   8.789  0.2955 -1.2719  0.1114
19685SOL     OW60495   7.373   3.118   6.923 -0.0279 -0.6420 -0.0722
19685SOL    HW160496   7.358   3.172   6.846 -0.1170 -0.7235 -0.1116
19685SOL    HW260497   7.293   3.128   6.975 -0.5466 -1.6870 -0.6438
19686SOL     OW60498   6.014   2.259   8.195  0.2755 -0.5457  0.3378
19686SOL    HW160499   5.946   2.193   8.208 -1.4003  1.2547  1.2073
19686SOL    HW260500   5.966   2.338   8.167  2.1185  0.5262  0.0194
19687SOL     OW60501   5.742   2.005   6.652 -0.3434 -0.0194 -0.2492
19687SOL    HW160502   5.780   1.936   6.598 -0.1510  0.3368 -0.5791
19687SOL    HW260503   5.804   2.015   6.725  0.2192  0.5658 -0.7892
19688SOL     OW60504   5.728   3.139   8.899  0.3385  0.0333 -0.0170
19688SOL    HW160505   5.734   3.045   8.919 -0.7457 -0.1620 -0.5389
19688SOL    HW260506   5.724   3.142   8.803  0.0486  0.5961  0.0122
19689SOL     OW60507   6.165   3.881   7.890  0.5282 -0.0264 -0.1594
19689SOL    HW160508   6.089   3.873   7.832 -0.0733  2.3308  0.1790
19689SOL    HW260509   6.129   3.863   7.977  0.7914 -0.7368 -0.1930
19690SOL     OW60510   6.290   5.672   7.698  0.0824  0.3685 -0.3181
19690SOL    HW160511   6.317   5.749   7.747  1.3434  1.2663 -2.3075
19690SOL    HW260512   6.199   5.688   7.673  0.1801  0.9821 -0.2775
19691SOL     OW60513   5.834   2.668   9.779  0.3102  0.3133  0.1346
19691SOL    HW160514   5.911   2.723   9.788  1.0622 -0.6883  0.0473
19691SOL    HW260515   5.827   2.621   9.862 -0.7077  0.9944  0.4567
19692SOL     OW60516   5.740   3.150   5.824  0.3012  0.0774  0.2892
19692SOL    HW160517   5.835   3.140   5.821  0.0878 -2.3385 -0.2761
19692SOL    HW260518   5.719   3.157   5.917  0.8991 -1.2454  0.5369
19693SOL     OW60519   1.364   4.002   6.246  0.1866  0.4332 -0.4731
19693SOL    HW160520   1.338   3.958   6.327  1.1318 -0.3952 -0.6044
19693SOL    HW260521   1.306   4.078   6.240 -1.1456 -0.5053  0.0250
19694SOL     OW60522   7.188   3.376   5.588 -0.6547  0.0633 -0.0111
19694SOL    HW160523   7.270   3.330   5.573 -0.8453 -0.4083  0.3831
19694SOL    HW260524   7.175   3.429   5.509  0.3643  0.6505  0.2050
19695SOL     OW60525   5.728   2.535   6.825 -0.1036  0.5059 -0.0256
19695SOL    HW160526   5.801   2.521   6.885 -2.6261 -1.8325  2.8071
19695SOL    HW260527   5.708   2.448   6.789 -0.8602  1.2791 -1.6135
19696SOL     OW60528   7.486   3.077   5.944  0.3161  0.1581 -0.0186
19696SOL    HW160529   7.581   3.071   5.952  0.4877  0.7399 -1.4819
19696SOL    HW260530   7.461   3.148   6.004  0.8805  0.4356 -0.1074
19697SOL     OW60531   6.272   2.881   5.658  0.3841 -0.3626 -0.3941
19697SOL    HW160532   6.229   2.812   5.607  0.8150 -0.4093 -0.6957
19697SOL    HW260533   6.365   2.856   5.658  0.6269  0.5188 -0.9760
19698SOL     OW60534   6.217   2.795   7.578 -0.7540  0.1041 -0.4755
19698SOL    HW160535   6.251   2.863   7.521 -0.5206  0.5881  0.2296
19698SOL    HW260536   6.175   2.842   7.650  0.2298 -0.4744  0.5141
19699SOL     OW60537   6.237   2.392   6.955  0.3206 -0.0903  0.7024
19699SOL    HW160538   6.319   2.349   6.980  1.2332 -0.0641 -1.9737
19699SOL    HW260539   6.265   2.472   6.910 -1.1601 -0.2271 -0.5058
19700SOL     OW60540   0.267   1.022   7.035 -0.1208  0.1003 -0.3504
19700SOL    HW160541   0.244   0.929   7.033 -0.0449  0.0405  0.7078
19700SOL    HW260542   0.188   1.068   7.009 -0.9692 -0.1794  1.5349
19701SOL     OW60543   6.028   3.641   7.225 -0.3679 -0.4050 -0.2145
19701SOL    HW160544   6.115   3.682   7.221 -1.6260  2.4199 -0.9382
19701SOL    HW260545   5.992   3.651   7.137 -1.5655 -1.2263  0.1532
19702SOL     OW60546   4.629   1.420   6.619  0.6802 -0.0553  1.2621
19702SOL    HW160547   4.547   1.460   6.590 -0.0477 -1.7301  0.8916
19702SOL    HW260548   4.663   1.481   6.684 -0.0465  1.4551  0.3066
19703SOL     OW60549   5.698   3.135   8.624 -0.6770  0.2442 -0.1271
19703SOL    HW160550   5.734   3.057   8.582 -0.4096  0.1116  0.3351
19703SOL    HW260551   5.622   3.159   8.571  1.1238  1.6204 -2.2116
19704SOL     OW60552   6.981   2.690   5.548  0.6097  0.4707  0.3925
19704SOL    HW160553   6.890   2.671   5.567  0.2207  1.4241 -0.4370
19704SOL    HW260554   7.031   2.635   5.609 -0.4394 -2.1985 -1.0210
19705SOL     OW60555   1.632   2.976   7.181 -0.0603  0.4340  0.0946
19705SOL    HW160556   1.709   3.011   7.138  0.0232  0.9682  0.6781
19705SOL    HW260557   1.658   2.889   7.211 -0.1703 -0.0206 -1.0631
19706SOL     OW60558   7.140   4.440   4.219 -0.6986 -0.1019 -0.1371
19706SOL    HW160559   7.136   4.487   4.303 -0.4327 -0.4071  0.0450
19706SOL    HW260560   7.053   4.402   4.210 -1.4225  1.6279 -0.9902
19707SOL     OW60561   4.808   2.890   6.611 -0.3075  0.3334  0.4622
19707SOL    HW160562   4.737   2.923   6.555 -0.1922  1.7380  1.0931
19707SOL    HW260563   4.871   2.962   6.614  0.5565 -0.4198  0.9296
19708SOL     OW60564   6.340   3.047   6.243  0.6313 -0.2620 -0.2680
19708SOL    HW160565   6.290   3.022   6.165  0.4288 -1.8277  0.3187
19708SOL    HW260566   6.277   3.094   6.297 -0.1671 -1.8815  0.2895
19709SOL     OW60567   4.932   5.445   5.759 -0.4710  0.1551 -0.4396
19709SOL    HW160568   4.850   5.414   5.797 -0.1908  1.5981  1.5064
19709SOL    HW260569   4.989   5.368   5.758 -1.3963 -0.5432 -0.5389
19710SOL     OW60570   6.740   2.426   7.390  0.5142  0.0577  0.6314
19710SOL    HW160571   6.757   2.520   7.382  0.6183 -0.0003  0.1345
19710SOL    HW260572   6.654   2.421   7.430  0.3736  0.3695  0.3740
19711SOL     OW60573   6.980   4.306   7.793  0.1352 -0.1441 -0.0346
19711SOL    HW160574   6.974   4.254   7.872 -0.7212  1.0614  0.7334
19711SOL    HW260575   7.029   4.384   7.819  1.7543 -0.6977 -1.2602
19712SOL     OW60576   4.778   2.154   6.605 -0.0496  0.4251  0.5189
19712SOL    HW160577   4.700   2.176   6.553 -0.1119  0.9590  0.8293
19712SOL    HW260578   4.815   2.239   6.629  1.5660  0.2041 -0.9953
19713SOL     OW60579   0.886   4.012   5.001  0.2597  0.3168  0.2592
19713SOL    HW160580   0.979   3.994   5.018 -0.1422  0.4434  3.0332
19713SOL    HW260581   0.847   3.925   4.989  0.8936  0.3119 -2.4527
19714SOL     OW60582   7.911   4.033   9.086  0.0790 -0.1632 -0.0393
19714SOL    HW160583   7.854   4.109   9.075  1.0567  0.8113  1.3406
19714SOL    HW260584   7.875   3.967   9.026 -1.8775  0.7517  0.0482
19715SOL     OW60585   0.691   3.358   6.032 -0.1392  0.3503  0.0657
19715SOL    HW160586   0.653   3.361   5.944  1.1065  0.2382 -0.5110
19715SOL    HW260587   0.749   3.282   6.030 -0.2787  0.2114  1.0707
19716SOL     OW60588   6.727   2.047   7.178  0.6629 -0.4100  0.1035
19716SOL    HW160589   6.744   2.085   7.264 -2.0146  1.6645 -0.1449
19716SOL    HW260590   6.665   1.975   7.196 -1.4178  1.2298 -0.1458
19717SOL     OW60591   0.114   2.796   4.335  0.0837 -0.7001  0.1359
19717SOL    HW160592   0.032   2.838   4.360  0.1655 -1.3881  1.6975
19717SOL    HW260593   0.166   2.796   4.415  0.6745 -2.3801 -0.2043
19718SOL     OW60594   5.859   5.007   8.282  0.2207 -0.2082  0.1520
19718SOL    HW160595   5.820   4.942   8.224 -1.1923  0.9841 -0.2925
19718SOL    HW260596   5.845   4.972   8.370  0.8726 -1.2131 -0.1180
19719SOL     OW60597   1.609   2.116   7.355  0.0500  0.0009  0.4706
19719SOL    HW160598   1.615   2.211   7.349  0.7727 -0.0716 -0.0466
19719SOL    HW260599   1.678   2.083   7.297 -0.4528 -0.8422  0.3270
19720SOL     OW60600   5.591   4.345   5.872 -0.1674 -0.0941  0.6259
19720SOL    HW160601   5.519   4.303   5.826 -0.7391  1.1348  0.3660
19720SOL    HW260602   5.625   4.410   5.811 -0.3983  0.9870  1.6210
19721SOL     OW60603   5.583   3.437   7.535  0.0193  0.9140  0.4528
19721SOL    HW160604   5.596   3.343   7.522  0.4260  0.9968  0.2269
19721SOL    HW260605   5.550   3.445   7.624 -2.5506  0.3491 -0.3893
19722SOL     OW60606   5.783   4.439   6.052 -0.1758  0.2471  0.5452
19722SOL    HW160607   5.722   4.397   5.992  0.0371 -1.7443  1.6501
19722SOL    HW260608   5.747   4.422   6.139  0.2036  1.9680  1.0858
19723SOL     OW60609   7.096   2.515   6.706 -0.0754 -0.6772 -0.4156
19723SOL    HW160610   7.096   2.610   6.699 -2.4039 -0.6435 -0.6933
19723SOL    HW260611   7.059   2.498   6.793  0.4705 -1.3479 -0.3029
19724SOL     OW60612   4.146   2.230   6.237  0.2628  0.2413 -0.1643
19724SOL    HW160613   4.060   2.204   6.207  0.8570  0.0378 -1.7876
19724SOL    HW260614   4.132   2.313   6.283 -0.7181  0.4880 -0.8858
19725SOL     OW60615   6.948   3.271   7.282  0.2325  0.3127 -0.1146
19725SOL    HW160616   6.865   3.222   7.285  1.2307 -1.4450  0.2884
19725SOL    HW260617   6.999   3.226   7.214  0.6806  1.7237 -0.7570
19726SOL     OW60618   7.668   2.668   6.651  0.1611  0.4290  0.5752
19726SOL    HW160619   7.581   2.639   6.679 -0.0172 -0.5539 -0.9177
19726SOL    HW260620   7.658   2.689   6.558  1.7471 -0.7394  0.1039
19727SOL     OW60621   5.883   3.835   7.361  0.5404  0.2946  0.6327
19727SOL    HW160622   5.908   3.766   7.300 -0.6938  0.7909 -0.4975
19727SOL    HW260623   5.955   3.897   7.358  0.4837  0.3351 -0.3927
19728SOL     OW60624   7.532   1.762   8.328 -0.1446 -0.3523  0.2304
19728SOL    HW160625   7.456   1.799   8.373 -0.2574 -0.7262  0.3508
19728SOL    HW260626   7.541   1.815   8.249  0.8017  1.1238  1.2729
19729SOL     OW60627   6.263   3.769   7.171 -0.0945 -0.0404 -0.6400
19729SOL    HW160628   6.238   3.812   7.089 -0.8523 -0.4157 -0.6205
19729SOL    HW260629   6.272   3.841   7.234  2.2096  0.4322 -1.4312
19730SOL     OW60630   6.021   4.271   7.492 -0.8058  0.3253  0.5429
19730SOL    HW160631   6.005   4.365   7.490 -2.4379  0.0850  0.7486
19730SOL    HW260632   6.071   4.256   7.572  2.2341  1.3459 -1.0261
19731SOL     OW60633   7.415   3.307   6.121  0.5010 -0.1264 -0.0106
19731SOL    HW160634   7.463   3.384   6.089 -0.9631  1.0623  0.5453
19731SOL    HW260635   7.470   3.272   6.191  0.8317  0.8941  0.2591
19732SOL     OW60636   6.519   2.118   5.768 -0.1957 -0.3872  0.0606
19732SOL    HW160637   6.542   2.199   5.813 -2.5262 -0.2518  1.1595
19732SOL    HW260638   6.490   2.145   5.682  0.4000 -0.2225 -0.0926
19733SOL     OW60639   6.937   3.653   5.265 -0.6483  0.6408  0.5716
19733SOL    HW160640   6.914   3.743   5.242 -3.4406  0.1384  0.9706
19733SOL    HW260641   6.953   3.610   5.181  4.2883  2.1545  0.4483
19734SOL     OW60642   6.872   2.984   6.970  0.6387 -0.8017  0.1542
19734SOL    HW160643   6.833   3.008   7.054  0.5112 -1.7419  0.3783
19734SOL    HW260644   6.804   2.934   6.925  0.9001 -0.7718 -0.2857
19735SOL     OW60645   7.631   3.537   7.444  0.3007  0.2304  0.1202
19735SOL    HW160646   7.664   3.557   7.356 -0.6952  0.7917 -0.1405
19735SOL    HW260647   7.676   3.600   7.500  0.7472  0.0418 -0.0176
19736SOL     OW60648   6.423   3.387   6.440 -0.0129 -0.0528  0.5656
19736SOL    HW160649   6.382   3.322   6.497 -2.4026 -0.7313 -1.7354
19736SOL    HW260650   6.493   3.338   6.396 -0.5486 -0.5660  0.2629
19737SOL     OW60651   7.273   5.449   5.278 -0.6326 -0.0421  0.4787
19737SOL    HW160652   7.242   5.520   5.335 -0.7883  1.9567 -1.9023
19737SOL    HW260653   7.281   5.490   5.192  2.1028 -2.2182 -0.4507
19738SOL     OW60654   6.889   3.953   7.024  0.5562 -0.0129 -0.3895
19738SOL    HW160655   6.869   4.007   6.948 -1.1974 -0.0967 -0.0251
19738SOL    HW260656   6.975   3.915   7.005  1.3066  1.9616 -1.1674
19739SOL     OW60657   7.132   4.979   9.046 -0.4214 -0.3434  0.3776
19739SOL    HW160658   7.101   5.056   9.094  0.4609  0.0905  0.2794
19739SOL    HW260659   7.198   5.013   8.986 -2.6301 -0.5980 -2.4053
19740SOL     OW60660   7.092   2.481   8.347  0.2067  0.6367  0.5313
19740SOL    HW160661   6.997   2.491   8.354  0.2900  2.1974 -0.1751
19740SOL    HW260662   7.119   2.551   8.287  1.6766 -0.4504 -0.1364
19741SOL     OW60663   7.059   2.801   7.050  0.2225  0.4872 -0.6347
19741SOL    HW160664   7.009   2.882   7.040 -0.1963  0.3221  0.0650
19741SOL    HW260665   7.144   2.821   7.011  0.5969  1.7119  0.6861
19742SOL     OW60666   7.401   0.704   6.670  0.0307  0.4100  0.0684
19742SOL    HW160667   7.496   0.697   6.665  0.1761  2.1271 -0.1311
19742SOL    HW260668   7.381   0.697   6.763  0.1307 -1.8409 -0.0220
19743SOL     OW60669   7.398   2.529   8.186 -0.3212  0.7560 -0.5416
19743SOL    HW160670   7.441   2.543   8.270 -1.5491  0.8343  0.1026
19743SOL    HW260671   7.414   2.609   8.136  0.4416  0.6963 -0.3926
19744SOL     OW60672   0.031   2.454   5.116  0.1795 -0.3609  0.1616
19744SOL    HW160673   0.011   2.463   5.023  2.1209  0.5365 -0.2323
19744SOL    HW260674   0.069   2.539   5.140 -1.2055 -0.2252  2.0440
19745SOL     OW60675   6.811   3.472   8.151  0.6517  0.4636  0.4621
19745SOL    HW160676   6.808   3.530   8.075  1.0461  2.3265  1.7769
19745SOL    HW260677   6.901   3.479   8.184  0.4906 -0.2868  1.1076
19746SOL     OW60678   6.734   2.462   6.829  0.2773  0.5543  0.1945
19746SOL    HW160679   6.640   2.444   6.827  0.5973 -1.3776  0.7239
19746SOL    HW260680   6.768   2.420   6.750  0.9993 -0.8546  1.2264
19747SOL     OW60681   7.369   4.793   7.168 -0.1581 -0.0866  0.1558
19747SOL    HW160682   7.358   4.831   7.080  0.9917 -0.0710  0.0071
19747SOL    HW260683   7.282   4.799   7.207 -0.2313  1.8955 -0.1921
19748SOL     OW60684   7.993   3.376   4.262 -0.6177  0.2705  0.0668
19748SOL    HW160685   8.059   3.308   4.254 -1.5063 -0.6768  0.5064
19748SOL    HW260686   7.966   3.394   4.172 -0.4452 -0.0412 -0.0492
19749SOL     OW60687   5.410   2.241   6.738  0.5161  0.2946 -0.4953
19749SOL    HW160688   5.384   2.318   6.789  0.4769 -0.1620  0.1959
19749SOL    HW260689   5.505   2.250   6.728  0.6368  0.0304  0.2947
19750SOL     OW60690   6.104   2.163   7.573  1.4068 -0.5307 -0.2673
19750SOL    HW160691   6.078   2.082   7.528  0.0640  0.4439 -1.2977
19750SOL    HW260692   6.089   2.232   7.509 -1.3584  1.0329  1.8787
19751SOL     OW60693   7.775   4.817   5.395 -0.3654  0.5266  0.1797
19751SOL    HW160694   7.687   4.834   5.361 -1.4834  0.7412  2.9360
19751SOL    HW260695   7.761   4.764   5.474  1.9847  0.6195  0.7475
19752SOL     OW60696   0.565   4.180   7.124  0.2862 -0.2994 -0.3360
19752SOL    HW160697   0.607   4.175   7.039  0.6464 -1.9172 -0.1021
19752SOL    HW260698   0.472   4.177   7.106  0.3717 -1.2842 -0.6655
19753SOL     OW60699   6.580   0.575   8.270 -0.1986 -0.4457  0.5329
19753SOL    HW160700   6.540   0.660   8.288  0.0777 -0.2042  0.0216
19753SOL    HW260701   6.668   0.581   8.307 -0.0710 -0.4011  0.2181
19754SOL     OW60702   7.545   2.574   6.959 -0.5447  0.5569 -0.6591
19754SOL    HW160703   7.471   2.586   7.020  0.1389  0.9752  0.1056
19754SOL    HW260704   7.504   2.569   6.873 -1.4630  0.8521 -0.2553
19755SOL     OW60705   4.936   2.735   9.367  0.6196  0.2264  0.1139
19755SOL    HW160706   4.849   2.698   9.353  1.0674 -0.7601 -0.2018
19755SOL    HW260707   4.992   2.689   9.304  1.4010  0.7281  0.4197
19756SOL     OW60708   5.578   2.361   5.809  0.2743  0.1909  0.0267
19756SOL    HW160709   5.537   2.334   5.891 -0.3642  0.0800 -0.3270
19756SOL    HW260710   5.619   2.282   5.775  3.7064  0.9145  2.0003
19757SOL     OW60711   5.832   2.722   7.149  0.1441 -0.7851 -0.0969
19757SOL    HW160712   5.886   2.794   7.115 -0.7060  0.3332  0.8149
19757SOL    HW260713   5.828   2.659   7.077  0.8002  0.1393 -0.9780
19758SOL     OW60714   7.911   2.904   7.936 -0.1364 -0.1051 -0.0960
19758SOL    HW160715   7.991   2.955   7.927 -0.0016 -0.0672  1.1368
19758SOL    HW260716   7.895   2.901   8.031 -0.2952 -2.1032 -0.1488
19759SOL     OW60717   5.303   3.565   7.953  0.0424  0.0651 -0.4383
19759SOL    HW160718   5.311   3.563   8.048 -0.0955  1.6540 -0.3740
19759SOL    HW260719   5.210   3.551   7.936 -0.1451  1.0504 -0.2669
19760SOL     OW60720   5.805   3.177   6.181 -0.1595 -0.4806 -0.0102
19760SOL    HW160721   5.838   3.252   6.131 -1.3350  0.2329  0.2464
19760SOL    HW260722   5.723   3.154   6.138 -1.8290  0.8895  2.1780
19761SOL     OW60723   5.970   2.024   6.843  0.3439  0.4422 -0.3001
19761SOL    HW160724   5.991   2.115   6.821 -0.4583  1.0020  1.0796
19761SOL    HW260725   5.959   2.025   6.938 -3.3016 -0.2663 -0.5517
19762SOL     OW60726   6.963   3.851   8.025 -0.3739  0.3121 -0.4344
19762SOL    HW160727   7.048   3.877   7.989  0.0047  1.2125  1.0074
19762SOL    HW260728   6.947   3.764   7.989  0.5816  0.6388 -1.6931
19763SOL     OW60729   7.078   3.434   8.222 -0.4365 -0.0359 -0.1018
19763SOL    HW160730   7.161   3.438   8.174 -2.0991  1.8727 -3.1775
19763SOL    HW260731   7.091   3.490   8.298  0.6115  1.7043 -1.4852
19764SOL     OW60732   1.752   0.709   5.073 -0.4137  0.2373 -0.1671
19764SOL    HW160733   1.747   0.777   5.140  1.3212 -0.3018  0.5629
19764SOL    HW260734   1.813   0.744   5.007 -1.6497  0.5181 -1.2072
19765SOL     OW60735   6.843   4.009   7.787  0.2934  0.3365  0.1742
19765SOL    HW160736   6.800   3.969   7.712  1.2486  0.9266 -0.7125
19765SOL    HW260737   6.929   3.968   7.791 -0.3687 -0.9919  2.0640
19766SOL     OW60738   7.298   2.143   7.864 -0.0224  0.3606  0.0704
19766SOL    HW160739   7.230   2.090   7.823 -0.0752  1.4145 -1.2709
19766SOL    HW260740   7.303   2.110   7.954 -0.0024 -1.9278 -0.7105
19767SOL     OW60741   7.571   2.845   7.133 -0.2305  0.0881 -0.0059
19767SOL    HW160742   7.593   2.914   7.195 -0.4958 -0.1570  0.3669
19767SOL    HW260743   7.654   2.800   7.118 -0.2220 -0.0460  0.4145
19768SOL     OW60744   6.024   3.016   7.437  0.5057 -0.1985  0.1693
19768SOL    HW160745   6.071   3.084   7.486  1.5407 -0.1721 -0.8353
19768SOL    HW260746   5.933   3.046   7.438  0.4555 -0.2712  2.1863
19769SOL     OW60747   6.640   5.655   7.391  0.1580 -0.0010  0.2180
19769SOL    HW160748   6.569   5.634   7.330  0.1461  0.4834  0.0605
19769SOL    HW260749   6.618   5.606   7.471 -1.2342  1.3987  0.7446
19770SOL     OW60750   7.160   2.687   7.486  0.1986  0.3955 -0.2771
19770SOL    HW160751   7.131   2.703   7.576 -0.7738  1.5935 -0.7814
19770SOL    HW260752   7.247   2.726   7.482 -0.2797  1.4993 -0.1999
19771SOL     OW60753   6.465   2.508   7.255  0.4908  0.2364 -1.0763
19771SOL    HW160754   6.439   2.591   7.296 -0.4279 -0.3877 -0.3519
19771SOL    HW260755   6.549   2.527   7.213  1.2756  1.0357  0.7364
19772SOL     OW60756   4.247   3.204   7.677 -0.0400 -0.2173  0.3453
19772SOL    HW160757   4.288   3.286   7.706 -3.0662  1.7777 -0.5536
19772SOL    HW260758   4.275   3.194   7.586  0.3020 -0.1767  0.4447
19773SOL     OW60759   6.828   3.621   7.037 -0.1226 -0.2918 -0.1451
19773SOL    HW160760   6.806   3.714   7.041 -1.7054 -0.6752  1.8824
19773SOL    HW260761   6.897   3.609   7.102  0.3777 -0.4729 -0.7028
19774SOL     OW60762   6.034   2.362   4.261  0.0659  0.7816  0.3440
19774SOL    HW160763   6.028   2.454   4.234  0.2706  0.5523 -0.5338
19774SOL    HW260764   5.991   2.359   4.346  0.9735  1.8847  0.8694
19775SOL     OW60765   6.886   3.274   9.632  0.4170  0.0443 -0.2914
19775SOL    HW160766   6.812   3.326   9.662 -0.1209 -0.4565 -0.7497
19775SOL    HW260767   6.959   3.337   9.629  0.7395  0.0050  2.7876
19776SOL     OW60768   6.172   3.315   6.573  0.1433 -0.0554 -0.3371
19776SOL    HW160769   6.201   3.254   6.641 -1.2954 -1.3929 -0.8830
19776SOL    HW260770   6.159   3.398   6.620 -0.9441 -0.9713  1.0788
19777SOL     OW60771   5.858   2.901   5.265  0.3381 -0.0103 -0.3992
19777SOL    HW160772   5.786   2.889   5.204 -0.1247 -0.5898  0.2534
19777SOL    HW260773   5.934   2.919   5.209 -0.1524 -0.1558 -1.1196
19778SOL     OW60774   1.437   1.147   6.998  0.2228  0.0824  0.1413
19778SOL    HW160775   1.366   1.212   7.008  0.4332  0.0343  2.3693
19778SOL    HW260776   1.396   1.075   6.950 -0.4752  1.1596 -0.9409
19779SOL     OW60777   6.387   3.720   8.633 -0.4954 -0.1978 -0.2492
19779SOL    HW160778   6.402   3.641   8.582 -0.9096 -0.9058  0.6927
19779SOL    HW260779   6.292   3.722   8.647 -0.2357 -1.0515  2.0375
19780SOL     OW60780   7.537   3.193   6.330 -0.3700 -0.3747 -0.2039
19780SOL    HW160781   7.563   3.101   6.328 -0.3577 -0.3591 -0.7359
19780SOL    HW260782   7.559   3.222   6.419  1.5147 -0.3211 -0.6667
19781SOL     OW60783   6.410   2.975   8.208 -0.9928 -0.1328 -0.2238
19781SOL    HW160784   6.496   2.938   8.226 -1.6651 -0.7564  1.9316
19781SOL    HW260785   6.349   2.919   8.254 -2.4876  0.8465 -0.9323
19782SOL     OW60786   7.337   1.685   5.770 -0.2029  1.2698  0.6835
19782SOL    HW160787   7.285   1.612   5.736 -0.5916  2.1216 -0.6313
19782SOL    HW260788   7.277   1.760   5.769  0.2106  1.6359  1.9363
19783SOL     OW60789   5.756   3.612   4.923 -0.4968 -0.0143  0.3249
19783SOL    HW160790   5.840   3.598   4.967 -0.8699 -0.2010  0.9901
19783SOL    HW260791   5.691   3.578   4.984 -0.9680 -1.0960 -0.7510
19784SOL     OW60792   0.419   2.417   6.618  0.6431  0.2598  0.9297
19784SOL    HW160793   0.450   2.480   6.553  2.0479 -0.5262  0.8038
19784SOL    HW260794   0.466   2.438   6.698 -0.5399  0.7584  1.5099
19785SOL     OW60795   7.320   5.428   7.584 -0.0449  0.2925  0.2912
19785SOL    HW160796   7.366   5.471   7.657  2.2189 -1.4277  0.0031
19785SOL    HW260797   7.390   5.391   7.531 -1.7622 -1.0851 -1.1277
19786SOL     OW60798   7.075   3.517   4.652 -0.6195  0.1398 -0.0501
19786SOL    HW160799   7.163   3.531   4.687 -0.2036 -1.6422 -0.3088
19786SOL    HW260800   7.072   3.571   4.573  0.2460  0.1711 -0.0696
19787SOL     OW60801   6.280   3.735   7.671 -0.1156  0.2830 -0.3427
19787SOL    HW160802   6.212   3.756   7.735 -0.2101  1.5381 -0.8300
19787SOL    HW260803   6.237   3.678   7.607 -0.9959  1.8308 -1.1662
19788SOL     OW60804   6.000   2.282   6.812 -0.6706 -0.1153  0.0243
19788SOL    HW160805   5.950   2.351   6.856 -0.5150  0.1613 -0.2213
19788SOL    HW260806   6.091   2.309   6.821 -0.6829  0.4937 -1.3317
19789SOL     OW60807   4.483   6.530   7.651 -0.4518 -0.5444  0.2749
19789SOL    HW160808   4.565   6.578   7.662 -0.5195 -0.4389  0.3214
19789SOL    HW260809   4.473   6.480   7.732  0.0779 -1.3455 -0.1417
19790SOL     OW60810   6.231   4.317   7.707  0.0372  0.1267  0.3827
19790SOL    HW160811   6.292   4.261   7.755  0.7233  1.6953  1.4117
19790SOL    HW260812   6.165   4.342   7.772 -1.6775 -1.3969 -0.6654
19791SOL     OW60813   0.166   2.080   7.613  0.0424  0.0039 -0.0095
19791SOL    HW160814   0.217   2.129   7.548 -0.3378  0.0850 -0.2484
19791SOL    HW260815   0.201   1.992   7.609  0.9651  0.3226  0.6611
19792SOL     OW60816   1.873   1.842   5.672 -0.4358 -0.3567 -0.3595
19792SOL    HW160817   1.913   1.792   5.744 -1.2753 -0.0330  0.3496
19792SOL    HW260818   1.948   1.874   5.621  0.2138  0.0611  0.8198
19793SOL     OW60819   5.762   2.490   8.472 -0.3198 -0.4314  0.7985
19793SOL    HW160820   5.852   2.522   8.486 -0.3593  0.2000 -0.2689
19793SOL    HW260821   5.707   2.566   8.492 -0.5424 -0.4550  0.2853
19794SOL     OW60822   6.410   2.316   8.359  0.4599  0.5154  0.4291
19794SOL    HW160823   6.488   2.268   8.388  0.2906  0.8940  1.5539
19794SOL    HW260824   6.369   2.258   8.295 -0.4071 -1.4522  2.6083
19795SOL     OW60825   7.934   2.910   6.562  0.3179 -0.1568  0.1815
19795SOL    HW160826   7.950   2.818   6.540  0.2342 -0.0001 -0.5619
19795SOL    HW260827   7.884   2.906   6.643  0.8674 -0.7472  0.5011
19796SOL     OW60828   6.319   2.749   6.335  0.2345  0.6558 -0.2232
19796SOL    HW160829   6.328   2.838   6.370  0.3039  0.7934 -0.5850
19796SOL    HW260830   6.310   2.762   6.241 -0.9799  0.3477 -0.1569
19797SOL     OW60831   7.513   3.326   7.644 -0.2668  0.1709 -0.1677
19797SOL    HW160832   7.482   3.342   7.555  0.2894 -0.8359 -0.5607
19797SOL    HW260833   7.599   3.367   7.647  0.6006 -1.5157 -0.7680
19798SOL     OW60834   5.905   2.528   9.298 -0.4889  0.0064  0.5426
19798SOL    HW160835   5.906   2.621   9.322  0.5635  0.3189 -0.5981
19798SOL    HW260836   5.843   2.523   9.225  1.8646  0.5071 -1.6751
19799SOL     OW60837   6.082   3.142   6.975 -0.2729 -0.0340  0.0206
19799SOL    HW160838   6.073   3.191   7.056 -2.0553  0.4231 -0.4027
19799SOL    HW260839   6.043   3.199   6.908 -0.2911 -1.0642 -0.8829
19800SOL     OW60840   5.407   3.601   6.794  0.8770  0.0529  0.3657
19800SOL    HW160841   5.370   3.661   6.730 -0.5042 -1.1318  0.0085
19800SOL    HW260842   5.349   3.525   6.793  2.5311 -1.2961  0.8262
19801SOL     OW60843   4.836   1.668   5.764 -0.1362  0.0173 -0.6546
19801SOL    HW160844   4.764   1.674   5.827  1.1438 -1.0128  1.0087
19801SOL    HW260845   4.915   1.669   5.819  1.0120 -2.7932 -2.0828
19802SOL     OW60846   5.271   3.009   7.545  0.2128 -0.3553  0.3792
19802SOL    HW160847   5.270   3.040   7.454 -0.3837 -1.8895 -0.1579
19802SOL    HW260848   5.181   2.984   7.564 -0.4167  2.9613  2.5406
19803SOL     OW60849   7.108   3.038   7.552 -0.1535 -0.2725  0.3505
19803SOL    HW160850   7.017   3.013   7.537 -0.2543 -0.5911  1.4005
19803SOL    HW260851   7.155   3.007   7.475 -1.0255  0.4432 -0.4902
19804SOL     OW60852   6.372   3.822   5.882 -0.2715  0.3249  0.1100
19804SOL    HW160853   6.378   3.727   5.890 -0.6479  0.0752 -1.9959
19804SOL    HW260854   6.332   3.836   5.796 -1.3632  2.3769  0.8915
19805SOL     OW60855   6.244   2.956   7.333 -0.0891  0.0332 -0.4584
19805SOL    HW160856   6.302   3.031   7.350 -0.3043 -0.3197  2.1004
19805SOL    HW260857   6.159   2.983   7.368 -0.5136 -0.9319 -0.7217
19806SOL     OW60858   5.851   3.835   9.196  0.2015  0.6300  0.0602
19806SOL    HW160859   5.788   3.794   9.254  0.2980  0.1001 -0.1981
19806SOL    HW260860   5.805   3.843   9.112  1.3010 -2.4007 -1.0052
19807SOL     OW60861   6.676   3.573   6.393  0.0211 -0.0410  0.4125
19807SOL    HW160862   6.695   3.637   6.325 -0.4454 -0.7988 -0.4657
19807SOL    HW260863   6.581   3.579   6.405  0.1212  0.2024  1.1228
19808SOL     OW60864   6.915   3.370   6.857 -0.5432 -0.3645 -0.0323
19808SOL    HW160865   6.819   3.366   6.863 -0.4760 -0.2443  1.3646
19808SOL    HW260866   6.934   3.463   6.845 -0.5582 -0.2913  0.5215
19809SOL     OW60867   6.348   1.078   5.626  0.3886 -0.9860 -0.3680
19809SOL    HW160868   6.284   1.084   5.697  0.8809 -1.6156  0.1346
19809SOL    HW260869   6.319   1.002   5.574 -1.6800  1.1374 -2.5821
19810SOL     OW60870   6.371   4.281   4.856 -0.6089 -0.4367  0.4017
19810SOL    HW160871   6.294   4.252   4.808 -0.2065 -0.7105 -0.0950
19810SOL    HW260872   6.433   4.208   4.849  0.2243  0.3203 -0.4255
19811SOL     OW60873   4.281   4.643   8.906  0.3474 -0.5037  0.6926
19811SOL    HW160874   4.301   4.699   8.831 -1.8275 -0.5544  0.0228
19811SOL    HW260875   4.327   4.561   8.887 -0.9002 -0.8403 -1.0720
19812SOL     OW60876   6.870   2.484   7.972  0.0253  0.2680  0.7922
19812SOL    HW160877   6.883   2.423   8.044  0.3050  0.7602  1.1687
19812SOL    HW260878   6.781   2.467   7.941  0.0472 -0.2197  0.9955
19813SOL     OW60879   6.484   3.750   6.978  0.4140  0.3558  0.5178
19813SOL    HW160880   6.418   3.716   7.038  1.0491  2.0240  2.2589
19813SOL    HW260881   6.497   3.841   7.006  4.2161 -0.1729  1.0023
19814SOL     OW60882   5.596   3.232   7.817 -0.1454  0.0892  0.1647
19814SOL    HW160883   5.624   3.149   7.856 -0.6908  0.4185  1.2723
19814SOL    HW260884   5.507   3.244   7.848  0.3818  1.7620  1.1278
19815SOL     OW60885   7.019   4.376   8.252  0.0753  0.1344 -0.2630
19815SOL    HW160886   7.105   4.412   8.273 -0.2897  0.9462 -0.0999
19815SOL    HW260887   6.958   4.428   8.304 -0.5348 -0.2593 -0.5694
19816SOL     OW60888   0.032   1.817   5.490 -0.0370  0.0095  0.2958
19816SOL    HW160889   0.081   1.896   5.512  0.8592 -0.2075 -0.8417
19816SOL    HW260890   0.080   1.777   5.417  0.4090 -2.4278  1.8099
19817SOL     OW60891   6.868   1.455   7.424 -0.0076  0.4559 -0.2255
19817SOL    HW160892   6.891   1.451   7.332  1.0390 -0.6982  0.0479
19817SOL    HW260893   6.898   1.541   7.453 -1.2912  1.2546 -1.1617
19818SOL     OW60894   6.890   4.676   5.168 -0.4130 -0.0942 -0.2168
19818SOL    HW160895   6.976   4.681   5.209  0.2297 -0.3067 -1.4861
19818SOL    HW260896   6.854   4.765   5.174 -0.5172 -0.2153  1.1456
19819SOL     OW60897   7.666   2.746   6.084 -0.2896 -0.7531  0.4851
19819SOL    HW160898   7.683   2.652   6.079  0.2326 -0.5765 -1.6713
19819SOL    HW260899   7.752   2.786   6.094 -0.2298 -0.3811 -1.2634
19820SOL     OW60900   5.757   3.001   7.246  0.3981  0.1974 -0.2294
19820SOL    HW160901   5.763   2.906   7.241 -0.1346  0.1995 -1.0855
19820SOL    HW260902   5.789   3.032   7.162  0.4886  0.7790  0.0143
19821SOL     OW60903   6.580   2.772   7.248 -0.6812 -0.7968 -0.1232
19821SOL    HW160904   6.659   2.738   7.288 -0.8483 -1.1882 -0.1234
19821SOL    HW260905   6.579   2.865   7.272 -0.5208 -0.9159  0.3547
19822SOL     OW60906   6.128   1.950   6.614  0.4427 -0.0266 -0.9876
19822SOL    HW160907   6.094   1.970   6.701  1.1187 -1.4628 -0.3610
19822SOL    HW260908   6.130   2.034   6.569 -0.0882  0.7134  0.3167
19823SOL     OW60909   5.674   3.905   7.864 -0.7848  0.4273  0.0603
19823SOL    HW160910   5.721   3.918   7.946 -0.0452 -0.7017 -0.1628
19823SOL    HW260911   5.620   3.828   7.880 -1.2266  0.6654 -0.2688
19824SOL     OW60912   5.857   3.858   5.237  0.2263  0.4238 -0.5638
19824SOL    HW160913   5.814   3.813   5.310  1.0056  0.3191 -0.1580
19824SOL    HW260914   5.789   3.914   5.200 -0.5426 -0.4770 -0.5711
19825SOL     OW60915   6.004   2.539   7.801  0.3038 -0.3220  0.2991
19825SOL    HW160916   5.956   2.512   7.723  0.8978 -2.0091  0.4975
19825SOL    HW260917   6.092   2.506   7.788  1.2096  1.8532  0.4189
19826SOL     OW60918   7.618   3.075   7.307  0.4153 -0.1992 -0.4847
19826SOL    HW160919   7.696   3.107   7.261  1.0718 -1.3891 -0.2285
19826SOL    HW260920   7.644   3.071   7.399 -1.1116  2.8552  0.2330
19827SOL     OW60921   7.309   3.495   8.108  0.0632 -0.4917 -0.1242
19827SOL    HW160922   7.323   3.465   8.018 -2.0120  1.0473 -1.0429
19827SOL    HW260923   7.389   3.544   8.129  1.3290 -2.3119 -0.4274
19828SOL     OW60924   6.811   3.110   7.694  0.0560 -0.7035 -0.1956
19828SOL    HW160925   6.722   3.107   7.660  0.6419  0.4350 -1.9785
19828SOL    HW260926   6.822   3.028   7.742 -1.6313 -1.2805 -0.7392
19829SOL     OW60927   5.464   4.319   7.668 -0.4610  0.0080  0.0613
19829SOL    HW160928   5.468   4.253   7.738  0.4445 -1.0235 -0.9120
19829SOL    HW260929   5.552   4.358   7.668 -1.2218  1.8346  1.1497
19830SOL     OW60930   6.023   1.828   7.972  0.4714 -0.3186  0.2774
19830SOL    HW160931   6.028   1.814   8.067  0.5956 -0.2295  0.2837
19830SOL    HW260932   6.101   1.880   7.951  0.4751 -0.3872  0.1178
19831SOL     OW60933   5.184   3.528   5.784 -0.1728  0.3279  0.4059
19831SOL    HW160934   5.094   3.512   5.811  0.0491 -0.3347  0.7781
19831SOL    HW260935   5.180   3.530   5.689 -0.8062  1.7232  0.4421
19832SOL     OW60936   7.223   2.707   8.565 -0.3241 -0.8453 -0.5795
19832SOL    HW160937   7.206   2.614   8.575  0.1698 -0.7785  1.1404
19832SOL    HW260938   7.233   2.740   8.654  2.5214  0.2806 -1.1904
19833SOL     OW60939   5.920   3.271   6.745  0.4631  0.2491 -0.1388
19833SOL    HW160940   5.919   3.236   6.656 -0.7836 -0.4896  0.1362
19833SOL    HW260941   5.979   3.346   6.741  0.6684  0.0370 -1.5111
19834SOL     OW60942   7.645   2.709   6.360  0.0206  0.1240 -0.0798
19834SOL    HW160943   7.634   2.693   6.266  2.5885  2.9700 -1.0427
19834SOL    HW260944   7.573   2.768   6.383 -0.1965 -0.0008 -0.4311
19835SOL     OW60945   5.679   2.883   7.480 -0.7060  0.1472  0.0108
19835SOL    HW160946   5.680   2.952   7.413 -0.7106 -1.6591 -1.9436
19835SOL    HW260947   5.761   2.836   7.467 -1.3464 -1.0944  0.3361
19836SOL     OW60948   0.418   2.810   5.451  0.0690 -0.0044  0.0076
19836SOL    HW160949   0.476   2.788   5.524  0.7724 -0.7453 -0.7595
19836SOL    HW260950   0.329   2.801   5.487  0.3905  1.3986  1.2712
19837SOL     OW60951   5.702   3.300   8.250  0.4896  0.2523  0.6896
19837SOL    HW160952   5.625   3.320   8.197 -0.3396 -1.1756  1.3169
19837SOL    HW260953   5.690   3.351   8.330 -0.1835 -0.5100  1.0875
19838SOL     OW60954   6.719   5.038   9.001 -0.8863 -0.2013  0.0488
19838SOL    HW160955   6.631   5.031   8.965 -1.3729 -1.3963  1.3543
19838SOL    HW260956   6.757   4.951   8.990  0.5192  0.5301 -1.3302
19839SOL     OW60957   5.240   5.181   8.107 -0.6289  0.3447 -0.0514
19839SOL    HW160958   5.160   5.131   8.094  0.5605 -2.1616  1.4239
19839SOL    HW260959   5.279   5.187   8.020 -1.0908 -0.8432 -0.3545
19840SOL     OW60960   7.252   4.147   6.616  0.3154 -0.2077  0.5491
19840SOL    HW160961   7.169   4.194   6.610  0.2786 -0.0803  1.7854
19840SOL    HW260962   7.314   4.199   6.564 -0.5910 -0.8491 -1.2356
19841SOL     OW60963   6.046   1.953   5.690 -0.0915 -0.6414  0.5532
19841SOL    HW160964   6.136   1.965   5.719 -0.1506 -1.4913  1.1235
19841SOL    HW260965   5.995   1.951   5.771 -0.7986  1.0137  0.1967
19842SOL     OW60966   7.003   1.383   5.199 -0.2500 -0.5532 -0.1840
19842SOL    HW160967   7.085   1.360   5.241  0.4963  0.0130 -1.2775
19842SOL    HW260968   6.957   1.438   5.262  0.5201 -0.3147  0.1720
19843SOL     OW60969   0.234   7.603   8.925 -0.0105 -0.1225  0.4744
19843SOL    HW160970   0.213   7.571   8.837  0.5861  0.2511  0.1951
19843SOL    HW260971   0.329   7.613   8.925  0.4322 -3.0618  2.1405
19844SOL     OW60972   1.575   2.394   7.351  0.0078 -0.6851  0.3534
19844SOL    HW160973   1.493   2.365   7.311  0.3795 -0.5013 -0.5703
19844SOL    HW260974   1.550   2.468   7.407 -0.7235 -1.8095  1.5583
19845SOL     OW60975   6.895   2.968   8.110 -0.2236  0.3647 -0.4519
19845SOL    HW160976   6.930   2.882   8.131  0.3927  0.9365  0.9658
19845SOL    HW260977   6.942   3.028   8.168 -1.9080  1.4435 -0.1386
19846SOL     OW60978   7.050   3.899   8.321  0.1009  0.1477  0.0983
19846SOL    HW160979   7.023   3.925   8.233  1.7668  0.7477 -0.2749
19846SOL    HW260980   7.129   3.847   8.308  0.3055  0.1390  1.2303
19847SOL     OW60981   7.335   3.122   7.749 -0.3618 -0.1957  0.2946
19847SOL    HW160982   7.393   3.191   7.717 -1.0181 -0.0527 -0.6478
19847SOL    HW260983   7.263   3.121   7.686 -1.0169 -0.8571  1.0316
19848SOL     OW60984   5.284   2.677   6.122 -0.2332 -0.4667  0.3534
19848SOL    HW160985   5.353   2.615   6.145  0.5759 -0.7238 -2.3937
19848SOL    HW260986   5.206   2.644   6.166  0.8599 -1.5613  1.5537
19849SOL     OW60987   7.399   2.400   8.804 -0.0618 -0.4919  0.0998
19849SOL    HW160988   7.332   2.401   8.735  0.4539 -1.4058 -0.4475
19849SOL    HW260989   7.460   2.331   8.776  0.2706 -0.7363  1.3750
19850SOL     OW60990   7.813   2.624   7.820 -0.1355 -0.0520 -0.4999
19850SOL    HW160991   7.818   2.718   7.804  0.8908 -0.0675 -0.3273
19850SOL    HW260992   7.783   2.618   7.911 -0.0168  0.1127 -0.4480
19851SOL     OW60993   7.433   4.398   8.691 -0.2540  0.1032  0.3511
19851SOL    HW160994   7.385   4.412   8.609  0.3356 -1.9735 -0.4133
19851SOL    HW260995   7.521   4.431   8.673  0.1919 -1.3614 -0.2807
19852SOL     OW60996   5.468   2.472   7.117 -0.2088  0.1427  0.2485
19852SOL    HW160997   5.493   2.391   7.162 -0.4578 -0.7203 -1.1045
19852SOL    HW260998   5.475   2.451   7.024 -0.4065  1.6526 -0.1339
19853SOL     OW60999   1.348   2.099   7.491 -0.7736 -0.1514  0.0103
19853SOL    HW161000   1.416   2.119   7.426  1.6986  0.4414  2.5911
19853SOL    HW261001   1.301   2.181   7.503 -1.5116 -0.3646 -1.2331
19854SOL     OW61002   6.208   3.522   7.514 -0.4200  0.2429  0.2584
19854SOL    HW161003   6.144   3.456   7.540  1.2388 -1.1676  1.0160
19854SOL    HW261004   6.210   3.518   7.419  0.6288 -1.8845  0.3099
19855SOL     OW61005   1.290   1.699   7.391 -0.0687  0.1539 -0.2571
19855SOL    HW161006   1.220   1.763   7.385 -0.6453 -0.4340  0.0846
19855SOL    HW261007   1.361   1.735   7.338 -1.1620  0.0511 -1.8302
19856SOL     OW61008   0.109   3.098   7.488  0.2164  0.0620 -0.0101
19856SOL    HW161009   0.161   3.026   7.525 -0.7266 -0.3839  0.5147
19856SOL    HW261010   0.167   3.174   7.490  0.2682  0.0607  2.4129
19857SOL     OW61011   6.336   3.148   6.714  0.3930 -0.1128  0.6262
19857SOL    HW161012   6.312   3.098   6.792  1.1816  0.2104  1.0800
19857SOL    HW261013   6.410   3.101   6.676 -0.2561 -0.5134 -0.1862
19858SOL     OW61014   5.478   1.638   7.868 -0.0027  0.0612 -0.3339
19858SOL    HW161015   5.385   1.660   7.859  0.0177  0.5970  0.6254
19858SOL    HW261016   5.517   1.716   7.907  0.5739 -0.6998  0.6523
19859SOL     OW61017   6.711   0.920   7.398  0.3218  0.2101 -0.4897
19859SOL    HW161018   6.639   0.909   7.460 -0.1889  2.2418 -0.6403
19859SOL    HW261019   6.749   1.005   7.421  3.0590 -1.0011 -0.0721
19860SOL     OW61020   7.889   3.113   7.254 -0.0925  0.6151 -0.2470
19860SOL    HW161021   7.917   3.090   7.343 -1.1376 -1.3646 -0.3812
19860SOL    HW261022   7.925   3.045   7.198 -1.1249  0.7162 -1.0683
19861SOL     OW61023   5.367   4.012   7.053 -0.0047  0.1173  0.4846
19861SOL    HW161024   5.396   4.095   7.090 -0.4662  0.9147 -0.8893
19861SOL    HW261025   5.280   4.029   7.018 -0.4912 -1.1914  0.9841
19862SOL     OW61026   7.162   1.016   5.732 -0.3126  0.0857 -0.5388
19862SOL    HW161027   7.163   0.927   5.697 -1.0129  0.3231 -1.1780
19862SOL    HW261028   7.142   1.005   5.825  3.6268 -0.7144  0.3748
19863SOL     OW61029   7.436   2.154   4.463 -0.2191 -0.0336 -0.1433
19863SOL    HW161030   7.341   2.136   4.464  0.0359 -1.5714 -0.3780
19863SOL    HW261031   7.475   2.069   4.445  1.2122  0.6389 -0.2874
19864SOL     OW61032   7.884   1.883   6.298 -0.5586  0.0348 -0.2860
19864SOL    HW161033   7.809   1.828   6.321 -0.5185 -0.8818 -2.1514
19864SOL    HW261034   7.957   1.822   6.285  0.4574  0.8866  1.1772
19865SOL     OW61035   6.392   5.024   7.696 -0.1536  0.0054 -0.0344
19865SOL    HW161036   6.339   5.104   7.705  1.3466  0.9219  1.3666
19865SOL    HW261037   6.477   5.048   7.734  0.7764 -1.8666 -0.8224
19866SOL     OW61038   5.011   3.881   5.376  0.0397 -0.0887 -0.3152
19866SOL    HW161039   4.979   3.955   5.325 -0.7090 -0.5386 -0.5074
19866SOL    HW261040   4.989   3.903   5.467  1.3078  0.6771 -0.1710
19867SOL     OW61041   5.963   2.235  10.025  0.3026  0.0656 -0.5378
19867SOL    HW161042   6.037   2.229  10.085 -0.8491  3.7847  1.5794
19867SOL    HW261043   5.899   2.173  10.059  1.2269 -0.9211 -0.5389
19868SOL     OW61044   6.154   1.262   7.836 -0.5972  0.0393  0.8588
19868SOL    HW161045   6.208   1.251   7.757 -0.4238 -0.5952  1.0569
19868SOL    HW261046   6.067   1.283   7.803 -0.2002  1.2751  0.5318
19869SOL     OW61047   6.525   2.259   8.058  0.1936 -0.9828  0.2577
19869SOL    HW161048   6.549   2.166   8.058 -1.0142 -1.3114  0.6424
19869SOL    HW261049   6.432   2.260   8.082  0.0310  0.2893 -0.3376
19870SOL     OW61050   6.704   3.931   9.380 -0.2987 -0.0725 -0.1453
19870SOL    HW161051   6.670   3.873   9.312  2.6303 -0.2280 -1.6270
19870SOL    HW261052   6.748   4.001   9.332  0.4741  0.6993  1.6071
19871SOL     OW61053   7.270   0.945   6.793 -0.6057 -0.3033 -0.5931
19871SOL    HW161054   7.318   1.011   6.842 -2.1291 -0.9110  1.8796
19871SOL    HW261055   7.326   0.924   6.718  1.0495  1.8927 -0.0468
19872SOL     OW61056   6.379   2.825   8.609  0.4132 -0.1461  0.1535
19872SOL    HW161057   6.414   2.758   8.669  1.8294 -0.0823 -0.5540
19872SOL    HW261058   6.327   2.882   8.665 -0.2353 -1.4212  0.9082
19873SOL     OW61059   6.959   3.816  10.416  0.0580  0.3674  0.0389
19873SOL    HW161060   6.946   3.815  10.321 -2.7204  0.9642  0.3201
19873SOL    HW261061   6.875   3.847  10.451 -0.2541 -3.0478  2.8825
19874SOL     OW61062   5.964   2.026  10.226 -0.2602  0.2225  0.1427
19874SOL    HW161063   5.985   1.938  10.256  1.0433 -0.8484 -3.3619
19874SOL    HW261064   5.894   2.012  10.161 -1.0273  1.9576  0.5579
19875SOL     OW61065   6.264   1.892   8.463  0.8795  0.0045 -0.3849
19875SOL    HW161066   6.341   1.938   8.430  1.7238 -0.0765  1.3384
19875SOL    HW261067   6.213   1.959   8.507  1.1509 -0.3294  0.4696
19876SOL     OW61068   5.682   4.468   9.862 -0.1360 -0.3370  0.1410
19876SOL    HW161069   5.714   4.553   9.891 -0.0881 -0.2311 -0.2114
19876SOL    HW261070   5.623   4.439   9.931  0.1717 -0.2091  0.4576
19877SOL     OW61071   6.892   2.309   8.153 -0.2554 -0.3214  0.3870
19877SOL    HW161072   6.944   2.234   8.181  1.9941  1.5614  1.5783
19877SOL    HW261073   6.848   2.339   8.232 -0.6410  0.0090  0.0542
19878SOL     OW61074   0.420   3.749  11.458 -0.3787 -0.4366 -0.6017
19878SOL    HW161075   0.491   3.732  11.520 -1.6453  1.0298  1.3774
19878SOL    HW261076   0.444   3.832  11.416 -0.1256 -0.7929 -1.1669
19879SOL     OW61077   5.169   2.028   8.722  0.6444 -0.2236  0.6405
19879SOL    HW161078   5.178   2.061   8.633 -0.7235  0.8190  0.8361
19879SOL    HW261079   5.104   2.086   8.762  1.3155 -0.5861  2.3562
19880SOL     OW61080   0.851   0.581   6.975  0.1084  0.3112 -0.1473
19880SOL    HW161081   0.884   0.495   6.999  1.0875  0.6375 -0.2631
19880SOL    HW261082   0.776   0.595   7.033 -0.6626 -1.0099 -0.7871
19881SOL     OW61083   7.548   3.093   9.843 -0.1897 -0.0138  0.2373
19881SOL    HW161084   7.510   3.151   9.778 -1.3974  0.9704  1.7538
19881SOL    HW261085   7.496   3.013   9.838  0.6375 -0.5051 -0.9493
19882SOL     OW61086   6.221   2.591   9.717  0.1084  0.0146  0.1601
19882SOL    HW161087   6.265   2.520   9.763 -0.7319 -0.6875 -0.0787
19882SOL    HW261088   6.151   2.548   9.667  1.5795  0.5827 -2.6287
19883SOL     OW61089   5.087   2.196   7.915  0.5126  0.2285 -0.8809
19883SOL    HW161090   5.137   2.278   7.908  0.5108  0.2571 -0.5742
19883SOL    HW261091   5.124   2.140   7.847  0.7940  0.3413 -0.8246
19884SOL     OW61092   5.258   3.090   8.329 -0.4488 -0.8912 -0.0343
19884SOL    HW161093   5.203   3.118   8.256  1.5126 -2.6548 -2.3569
19884SOL    HW261094   5.272   3.169   8.381 -3.2866  0.0646 -0.5522
19885SOL     OW61095   5.529   2.607   8.632  0.3888  0.0212  0.5427
19885SOL    HW161096   5.595   2.675   8.646  1.1804 -0.3346 -1.1793
19885SOL    HW261097   5.460   2.650   8.582  0.8938 -0.3959 -0.5554
19886SOL     OW61098   6.135   3.578   8.067 -0.0970 -0.1678 -0.1478
19886SOL    HW161099   6.045   3.559   8.041  0.2189 -1.5165 -0.3650
19886SOL    HW261100   6.189   3.534   8.000  0.7183  0.5982 -0.0099
19887SOL     OW61101   7.391   0.557   9.285  0.0621 -0.2809 -0.0197
19887SOL    HW161102   7.444   0.635   9.266  0.3540 -0.6405 -0.7358
19887SOL    HW261103   7.451   0.496   9.327 -0.0991 -0.2198  0.2996
19888SOL     OW61104   5.941   2.174   8.753 -0.4020 -0.0997 -0.6314
19888SOL    HW161105   5.856   2.159   8.794 -0.1418  1.8695  0.8185
19888SOL    HW261106   5.959   2.267   8.770  2.1901 -0.5366 -0.5897
19889SOL     OW61107   0.249   3.890   8.919 -0.0045  0.2467  0.1413
19889SOL    HW161108   0.163   3.864   8.885 -1.2474  1.0779  2.3925
19889SOL    HW261109   0.312   3.845   8.862 -1.9235 -1.8250 -0.5219
19890SOL     OW61110   6.533   3.680   7.719  0.3347 -0.0389 -0.2567
19890SOL    HW161111   6.444   3.714   7.703  0.3748 -0.6180 -1.8309
19890SOL    HW261112   6.538   3.600   7.667  1.8614  0.1063 -0.3770
19891SOL     OW61113   0.080   3.674   7.643 -0.5275  0.1828 -0.2182
19891SOL    HW161114   0.174   3.686   7.661 -0.9210  1.1497  1.3646
19891SOL    HW261115   0.070   3.701   7.552  0.7011  0.2438 -0.3603
19892SOL     OW61116   5.859   2.861   9.050  0.2082  0.1589 -0.5561
19892SOL    HW161117   5.849   2.777   9.004 -0.5160 -0.9720  1.5486
19892SOL    HW261118   5.771   2.885   9.076  0.4969  1.2714 -0.5714
19893SOL     OW61119   4.808   2.523   9.925  0.0687  0.0982 -0.2758
19893SOL    HW161120   4.875   2.465   9.889  1.3927  0.7008  1.1215
19893SOL    HW261121   4.752   2.465   9.977  1.8728  0.0932  1.8074
19894SOL     OW61122   7.062   3.484  10.390 -0.3806 -0.2594  0.1143
19894SOL    HW161123   6.994   3.423  10.418 -0.1641 -0.8649 -0.6610
19894SOL    HW261124   7.139   3.430  10.377 -0.0993  0.2253 -0.2722
19895SOL     OW61125   0.281   2.827   8.102 -0.3790  0.3797 -0.0396
19895SOL    HW161126   0.219   2.783   8.045  0.6758 -1.9216  0.4726
19895SOL    HW261127   0.228   2.865   8.172 -1.2394 -1.7160  0.5069
19896SOL     OW61128   7.071   0.041   7.108  0.0130  0.2233  0.0550
19896SOL    HW161129   7.009   0.101   7.149  2.5409  2.9611  0.1549
19896SOL    HW261130   7.021  -0.002   7.039 -2.2491  1.4452  0.8400
19897SOL     OW61131   5.982   2.775  10.385  0.0752 -0.0356  0.0804
19897SOL    HW161132   5.958   2.787  10.477  1.7010 -0.3902  0.5773
19897SOL    HW261133   5.969   2.862  10.346  0.9139  0.5298  1.0197
19898SOL     OW61134   4.705   1.168   6.146 -0.2942 -0.5028 -0.7284
19898SOL    HW161135   4.614   1.148   6.168 -1.3823  0.3319 -3.8701
19898SOL    HW261136   4.699   1.243   6.086  2.5732  0.2838 -0.1885
19899SOL     OW61137   7.476   3.585   9.702  0.0380  0.0148 -0.2439
19899SOL    HW161138   7.558   3.581   9.751  0.1485 -2.5614 -0.4814
19899SOL    HW261139   7.423   3.650   9.748  0.6557 -1.2594  2.4859
19900SOL     OW61140   5.900   1.469   9.566 -0.3481  0.3203 -0.5570
19900SOL    HW161141   5.920   1.438   9.478 -0.4456 -1.0768 -0.1019
19900SOL    HW261142   5.948   1.552   9.573  1.9309 -0.8655 -0.9725
19901SOL     OW61143   7.673   4.353   7.669  0.2513  0.1748  0.3273
19901SOL    HW161144   7.662   4.307   7.586  0.6701 -1.0470  0.9260
19901SOL    HW261145   7.746   4.413   7.654  1.1654 -0.9423  0.1623
19902SOL     OW61146   7.950   3.280   7.746 -0.0393  0.3253  0.5371
19902SOL    HW161147   8.007   3.355   7.727  0.0083  0.3280  0.6868
19902SOL    HW261148   8.007   3.217   7.789 -0.0598  0.1664  0.3284
19903SOL     OW61149   7.700   2.374   7.962  0.1456  0.3176  0.2142
19903SOL    HW161150   7.754   2.309   8.006 -1.0550 -0.5445  0.4673
19903SOL    HW261151   7.720   2.456   8.006  0.8534 -0.0731  0.6413
19904SOL     OW61152   5.825   2.056   8.265 -0.2039  0.1500 -0.0006
19904SOL    HW161153   5.817   2.114   8.341 -0.2352 -0.2306  0.2898
19904SOL    HW261154   5.774   1.979   8.289 -0.8295  0.3305 -0.7100
19905SOL     OW61155   4.619   2.612   8.371  0.2451 -0.5535 -0.7767
19905SOL    HW161156   4.550   2.677   8.381  0.5268 -0.3613  0.0094
19905SOL    HW261157   4.699   2.659   8.392  0.3825 -1.3141  0.5456
19906SOL     OW61158   5.586   3.376   9.296  0.0111  0.4361 -0.2053
19906SOL    HW161159   5.494   3.375   9.321 -0.3249  0.9201 -1.3700
19906SOL    HW261160   5.586   3.352   9.204  1.1496 -0.5866  0.0372
19907SOL     OW61161   7.180   2.159  10.585 -0.1156  0.3901  0.0331
19907SOL    HW161162   7.167   2.248  10.553 -0.2354  0.9918  1.6766
19907SOL    HW261163   7.275   2.147  10.582 -0.1880  0.0002 -1.5889
19908SOL     OW61164   4.862   2.578   9.099  0.3190 -0.0264  0.0540
19908SOL    HW161165   4.899   2.492   9.118 -0.6804 -0.6422 -0.6540
19908SOL    HW261166   4.770   2.560   9.078 -0.6314  1.5178  2.4893
19909SOL     OW61167   6.664   2.829  10.113  0.2708 -0.0776 -0.4858
19909SOL    HW161168   6.635   2.904  10.165  0.4927 -0.1687 -0.2299
19909SOL    HW261169   6.650   2.856  10.022  1.7692  0.8644 -0.4727
19910SOL     OW61170   0.809   2.503   7.655 -0.6017  0.0198 -0.1548
19910SOL    HW161171   0.809   2.598   7.646  0.7018 -0.0242 -0.9247
19910SOL    HW261172   0.759   2.486   7.735 -1.1860  1.3216 -0.2349
19911SOL     OW61173   4.467   1.888   7.810  0.1624 -0.4288 -0.2334
19911SOL    HW161174   4.399   1.848   7.864  0.0701 -1.6149 -1.1872
19911SOL    HW261175   4.504   1.957   7.865 -1.2127 -0.3415  0.6202
19912SOL     OW61176   5.330   3.399  10.484 -0.1399  0.4384 -0.2422
19912SOL    HW161177   5.238   3.409  10.460  0.0195 -0.2752 -1.1872
19912SOL    HW261178   5.339   3.306  10.508  0.1699  0.6738  0.6041
19913SOL     OW61179   6.822   2.569   8.341  0.5345 -0.2071  0.2695
19913SOL    HW161180   6.743   2.555   8.290 -0.0052 -1.8334  1.4607
19913SOL    HW261181   6.799   2.639   8.403  1.1986  1.7830 -1.5930
19914SOL     OW61182   0.580   1.689   8.848  0.4373  0.1857 -0.1625
19914SOL    HW161183   0.508   1.641   8.890 -1.3609  1.0171 -2.0851
19914SOL    HW261184   0.586   1.650   8.760  2.9920 -0.4560  0.2397
19915SOL     OW61185   5.740   2.147   9.055 -0.6857 -0.0924 -0.5784
19915SOL    HW161186   5.721   2.113   8.968 -1.8501  0.4508 -0.5523
19915SOL    HW261187   5.671   2.211   9.071 -1.3828 -1.2821  1.3788
19916SOL     OW61188   7.143   0.333   7.073 -0.2530 -0.2596  0.0074
19916SOL    HW161189   7.074   0.267   7.070 -1.9723  1.4629 -0.0424
19916SOL    HW261190   7.179   0.327   7.162 -2.5860  0.8189  1.0947
19917SOL     OW61191   6.402   1.049   8.805  0.0485 -0.3771 -0.3776
19917SOL    HW161192   6.391   0.961   8.842  1.1399  0.1831  1.3789
19917SOL    HW261193   6.414   1.034   8.711 -1.3164 -1.9697 -0.3569
19918SOL     OW61194   4.757   1.884   7.823  0.1199  0.1440  0.0596
19918SOL    HW161195   4.773   1.976   7.840  1.4366 -0.3465  1.7412
19918SOL    HW261196   4.675   1.882   7.773  0.0811  2.1963 -0.0115
19919SOL     OW61197   6.866   3.194   9.007 -0.2443 -0.1192  0.1444
19919SOL    HW161198   6.937   3.131   9.020 -0.4215 -0.7904 -1.8496
19919SOL    HW261199   6.889   3.267   9.065  1.2473 -0.9724  0.7036
19920SOL     OW61200   5.844   3.557   9.079 -0.0817  0.1929  0.1984
19920SOL    HW161201   5.862   3.501   9.003 -1.1416  0.1226 -0.0173
19920SOL    HW261202   5.908   3.530   9.144  0.2631 -0.3704 -0.3601
19921SOL     OW61203   6.141   3.704   8.460 -0.1617  0.2014  0.1893
19921SOL    HW161204   6.158   3.625   8.409  1.2125  0.8798 -0.4522
19921SOL    HW261205   6.049   3.697   8.485 -0.0638 -1.6149  0.1956
19922SOL     OW61206   0.425   3.198   8.531 -0.5770  0.5815  0.3555
19922SOL    HW161207   0.507   3.175   8.487 -0.7487  1.6702 -0.5879
19922SOL    HW261208   0.357   3.152   8.481 -0.6578  0.8063  0.2547
19923SOL     OW61209   4.164   2.777  11.657 -0.0502  0.0212  0.1367
19923SOL    HW161210   4.198   2.801  11.743 -4.1004 -0.1810  1.9979
19923SOL    HW261211   4.129   2.859  11.622  2.7700  0.4130 -2.1130
19924SOL     OW61212   7.398   5.068   6.643  0.0664  0.0173  0.8261
19924SOL    HW161213   7.476   5.110   6.680 -0.3331  2.4861 -0.8838
19924SOL    HW261214   7.423   5.045   6.553 -0.9052  0.0561  0.5330
19925SOL     OW61215   5.348   4.964  10.195  0.0006  0.2263 -0.0333
19925SOL    HW161216   5.441   4.954  10.218  0.0488  0.4082 -0.1527
19925SOL    HW261217   5.337   4.907  10.119 -0.1249 -0.2629  0.3439
19926SOL     OW61218   6.351   5.555   8.456  0.0664 -0.1317  0.4991
19926SOL    HW161219   6.349   5.460   8.470 -2.5238 -0.2818 -0.4562
19926SOL    HW261220   6.333   5.566   8.363 -3.0277  1.3145  1.1494
19927SOL     OW61221   5.895   2.742   7.416  0.0371  0.1644  1.0728
19927SOL    HW161222   5.974   2.795   7.417  0.7542 -0.8845  1.9063
19927SOL    HW261223   5.887   2.714   7.325  1.5447 -1.0069  1.2539
19928SOL     OW61224   0.364   3.205   9.583 -0.7071  0.2502 -0.1787
19928SOL    HW161225   0.269   3.200   9.589 -0.6988  0.7991  0.6129
19928SOL    HW261226   0.381   3.232   9.493 -1.3261  0.6172 -0.1926
19929SOL     OW61227   5.929   1.358   9.995 -0.3793 -0.3045  0.6565
19929SOL    HW161228   5.961   1.269  10.007 -1.7887 -0.6572  2.2747
19929SOL    HW261229   5.878   1.356   9.914  0.8630 -0.5541 -0.1380
19930SOL     OW61230   5.704   1.613  10.539 -0.0183 -0.6517 -0.1952
19930SOL    HW161231   5.696   1.587  10.631 -1.1544 -3.7883 -1.0268
19930SOL    HW261232   5.672   1.703  10.536 -2.3504 -1.2704  2.1672
19931SOL     OW61233   5.701   1.800   9.652 -0.5679  0.4100 -0.2029
19931SOL    HW161234   5.775   1.800   9.712  0.2189  0.1100 -1.1362
19931SOL    HW261235   5.708   1.884   9.606 -0.7700  0.3554 -0.3344
19932SOL     OW61236   0.597   2.460  10.244  0.0850 -0.0726  0.6486
19932SOL    HW161237   0.607   2.365  10.248  0.7671  0.0283  1.6270
19932SOL    HW261238   0.513   2.477  10.288  0.1994 -0.1810  0.9076
19933SOL     OW61239   5.923   2.789   7.771  0.3797 -0.1455  0.2236
19933SOL    HW161240   5.953   2.701   7.796  1.5224  0.5058  1.2901
19933SOL    HW261241   5.992   2.822   7.713 -0.2777 -0.1124 -0.5549
19934SOL     OW61242   0.454   1.899   9.740 -0.6012  0.0559  0.0040
19934SOL    HW161243   0.490   1.929   9.824 -0.0861 -0.6199  0.0286
19934SOL    HW261244   0.401   1.823   9.761  0.8243 -1.1192 -0.4508
19935SOL     OW61245   0.260   3.469   9.135  0.5781 -0.0175  0.5033
19935SOL    HW161246   0.253   3.384   9.091  0.9742 -0.4736  1.2890
19935SOL    HW261247   0.225   3.532   9.072 -1.8727 -1.0196  0.7280
19936SOL     OW61248   6.218   2.200  10.113  0.0798  0.4793  0.4923
19936SOL    HW161249   6.275   2.257  10.062  0.4616 -0.3575 -0.0402
19936SOL    HW261250   6.275   2.127  10.140 -0.7502 -0.4364 -0.1619
19937SOL     OW61251   5.449   2.938   8.757 -0.5675  0.3986 -0.5645
19937SOL    HW161252   5.357   2.915   8.746 -1.1124  2.3246 -0.3210
19937SOL    HW261253   5.472   2.986   8.678  0.2848 -0.1957 -0.6928
19938SOL     OW61254   7.171   3.190   7.978 -0.2650  0.1791  0.5455
19938SOL    HW161255   7.222   3.138   7.916 -1.1554  0.5795 -0.5348
19938SOL    HW261256   7.128   3.256   7.925  0.2999  1.6240  1.8096
19939SOL     OW61257   6.278   0.825   9.111  0.1337  0.2533 -0.2509
19939SOL    HW161258   6.264   0.918   9.090  0.4958 -0.2079 -2.9786
19939SOL    HW261259   6.331   0.793   9.038  0.1340 -2.0878  0.7101
19940SOL     OW61260   5.907   1.676   7.488 -0.4893 -0.3490  0.0996
19940SOL    HW161261   5.943   1.760   7.461  2.2237 -1.6544 -0.6761
19940SOL    HW261262   5.907   1.679   7.584  1.1308 -0.0308  0.1140
19941SOL     OW61263   4.422   0.765   7.135 -0.3569  0.4441 -1.0427
19941SOL    HW161264   4.417   0.673   7.164  0.0657  0.5396 -0.6516
19941SOL    HW261265   4.331   0.793   7.129 -0.5534 -0.3920 -2.4670
19942SOL     OW61266   6.049   2.301   9.289 -0.1793  0.8070 -0.1972
19942SOL    HW161267   6.104   2.303   9.210 -0.5024  4.6839 -0.5352
19942SOL    HW261268   6.001   2.384   9.286 -1.0251  0.6187  3.5410
19943SOL     OW61269   7.457   2.117   8.732  0.1738 -0.3957  0.3713
19943SOL    HW161270   7.514   2.041   8.721 -1.5174 -1.5307 -1.0135
19943SOL    HW261271   7.444   2.123   8.827  0.8997 -1.3895  0.5538
19944SOL     OW61272   6.273   3.445   8.605  0.3146  0.1908  0.2516
19944SOL    HW161273   6.316   3.362   8.584 -2.1009 -0.8075 -1.2011
19944SOL    HW261274   6.233   3.473   8.522 -0.5145  1.8332  1.1463
19945SOL     OW61275   5.393   3.475   8.485  0.4141  0.4885 -0.2715
19945SOL    HW161276   5.338   3.528   8.542  0.5360 -0.4727  0.7834
19945SOL    HW261277   5.376   3.508   8.397 -0.7968  1.1208  0.1787
19946SOL     OW61278   7.527   2.748   8.003  0.0284 -0.3487  0.6634
19946SOL    HW161279   7.605   2.695   8.018 -0.6061 -1.6166 -0.2702
19946SOL    HW261280   7.524   2.760   7.908  0.9218  2.6369  0.9235
19947SOL     OW61281   6.558   3.627   6.715 -0.3526 -0.3169  0.4540
19947SOL    HW161282   6.545   3.680   6.794  1.4430  1.2134 -0.2099
19947SOL    HW261283   6.586   3.542   6.748  0.1355  0.2247  1.4863
19948SOL     OW61284   4.963   1.736   9.120 -0.0561  0.1159  0.1539
19948SOL    HW161285   5.054   1.706   9.116  0.1798  0.6455  1.1227
19948SOL    HW261286   4.967   1.829   9.096 -0.4125  0.0397 -0.2279
19949SOL     OW61287   5.998   2.125  10.495  0.4040 -0.0371 -0.3553
19949SOL    HW161288   6.017   2.047  10.547  1.8601  0.4425 -0.1060
19949SOL    HW261289   5.986   2.093  10.406 -1.0106 -0.7486  0.0741
19950SOL     OW61290   6.581   0.193   7.365  0.2781 -0.3346 -0.1610
19950SOL    HW161291   6.619   0.281   7.352  1.2124 -0.8938 -1.4165
19950SOL    HW261292   6.566   0.160   7.276  1.5478 -2.1000  0.2161
19951SOL     OW61293   6.809   2.790   9.082 -0.1951  0.0314  0.1834
19951SOL    HW161294   6.746   2.851   9.119 -0.3188  0.3317 -0.4968
19951SOL    HW261295   6.763   2.706   9.079 -1.1309  0.5488 -1.6750
19952SOL     OW61296   7.450   2.795   7.436  0.1584 -0.0809  0.1467
19952SOL    HW161297   7.529   2.756   7.398 -0.7839 -1.3051 -0.6038
19952SOL    HW261298   7.422   2.859   7.370  1.4536  1.6617  1.1827
19953SOL     OW61299   7.585   2.562   7.239  0.3893  0.7865  0.2136
19953SOL    HW161300   7.489   2.559   7.247  0.4272  1.9377  1.5630
19953SOL    HW261301   7.601   2.573   7.145 -0.8498  1.5424  0.0557
19954SOL     OW61302   4.958   1.976   8.987  0.3691  0.0487 -0.7124
19954SOL    HW161303   4.990   2.041   8.924  0.2635  0.7096 -0.0924
19954SOL    HW261304   4.899   1.921   8.935  1.1944 -0.1535 -1.4681
19955SOL     OW61305   6.589   3.040   9.628  0.3435 -1.0896 -0.4536
19955SOL    HW161306   6.555   3.095   9.557 -0.0585 -2.4771 -1.3785
19955SOL    HW261307   6.678   3.017   9.601  1.2175  0.5813  0.8280
19956SOL     OW61308   6.962   5.331   8.443  0.2690 -0.0477 -0.2503
19956SOL    HW161309   6.996   5.284   8.367  1.9586 -1.2522  1.1335
19956SOL    HW261310   6.868   5.315   8.442  0.5978 -2.4250 -0.6056
19957SOL     OW61311   1.073   1.047   9.159  0.4100  0.2001  0.5879
19957SOL    HW161312   1.160   1.027   9.193  0.7287 -0.3120 -0.4984
19957SOL    HW261313   1.088   1.112   9.091  0.3081 -1.8368 -1.5064
19958SOL     OW61314   6.730   3.950   8.923 -0.0389  0.5106 -0.0909
19958SOL    HW161315   6.787   4.008   8.872 -0.4975 -0.0573 -1.2978
19958SOL    HW261316   6.644   3.991   8.918 -0.1571  0.2678 -0.0640
19959SOL     OW61317   7.754   3.846   8.623  0.3997 -0.0186 -0.8235
19959SOL    HW161318   7.732   3.812   8.537 -0.3327  0.4171 -0.8213
19959SOL    HW261319   7.755   3.941   8.612 -3.2562  0.3165  0.3676
19960SOL     OW61320   7.031   3.168   8.216 -0.8074  0.2885  0.0112
19960SOL    HW161321   7.093   3.160   8.144 -2.1908 -0.3723 -1.1417
19960SOL    HW261322   7.028   3.262   8.235  1.7938  0.2104  1.2724
19961SOL     OW61323   7.158   3.892   7.837 -0.1215 -0.2106  0.0917
19961SOL    HW161324   7.183   3.983   7.820  2.4022 -0.8110  0.1264
19961SOL    HW261325   7.153   3.853   7.750  1.5675 -0.6275  0.1348
19962SOL     OW61326   0.086   3.415   7.197  0.0992  0.1833  0.1382
19962SOL    HW161327   0.045   3.376   7.274  1.4164  0.4123  0.9950
19962SOL    HW261328   0.058   3.507   7.200  1.7833  0.7006  1.5675
19963SOL     OW61329   0.137   2.703   9.161  0.1994  0.0141 -0.2285
19963SOL    HW161330   0.192   2.765   9.210  1.1436 -0.5588 -0.5365
19963SOL    HW261331   0.158   2.719   9.069 -1.6808  1.1883 -0.5224
19964SOL     OW61332   7.877   2.074   7.502 -0.1922 -0.9300 -0.2972
19964SOL    HW161333   7.882   2.109   7.413  1.0429  1.0337  0.4910
19964SOL    HW261334   7.967   2.078   7.535 -0.9345  0.4513  1.7820
19965SOL     OW61335   7.731   2.054   8.661  0.2814 -0.7494 -0.4734
19965SOL    HW161336   7.741   2.085   8.751  0.7847  1.6935 -1.2873
19965SOL    HW261337   7.653   1.999   8.663  0.6807 -1.2962  1.5714
19966SOL     OW61338   5.947   4.020   9.808 -0.0865 -0.2244  0.0187
19966SOL    HW161339   5.891   4.093   9.785 -0.8252 -1.0062 -0.7224
19966SOL    HW261340   6.013   4.017   9.739 -0.0078 -0.2026  0.0931
19967SOL     OW61341   3.863   2.500   8.802 -0.3222  0.1814 -0.2021
19967SOL    HW161342   3.860   2.417   8.848  0.3972 -0.8105 -1.8435
19967SOL    HW261343   3.790   2.496   8.740  0.2162  0.3889 -0.8727
19968SOL     OW61344   7.183   0.967   9.480 -0.0017  0.4879 -0.1046
19968SOL    HW161345   7.179   0.934   9.390 -0.5309 -2.0981  0.7832
19968SOL    HW261346   7.097   0.948   9.517  0.4725  0.7218  1.1940
19969SOL     OW61347   7.382   2.860   8.418  0.3280 -0.2810  0.5530
19969SOL    HW161348   7.310   2.857   8.354  0.7131 -0.4852  0.1265
19969SOL    HW261349   7.356   2.799   8.486  0.2429 -0.5991  0.2396
19970SOL     OW61350   5.640   2.379   9.679 -0.7453  0.1218  0.3871
19970SOL    HW161351   5.665   2.299   9.725  0.6564  1.4089  2.0001
19970SOL    HW261352   5.673   2.367   9.591  0.9967 -0.4135  1.0676
19971SOL     OW61353   6.846   4.393   8.833 -0.4436  0.0378 -0.2854
19971SOL    HW161354   6.905   4.326   8.799 -0.7252 -1.0634  1.3138
19971SOL    HW261355   6.902   4.470   8.842  0.2683 -0.4206 -0.6344
19972SOL     OW61356   6.665   3.066   8.921  0.0723 -0.3566  0.4404
19972SOL    HW161357   6.734   3.110   8.971 -0.6625 -0.0749  1.2154
19972SOL    HW261358   6.584   3.086   8.967 -0.2145 -3.3433  1.4827
19973SOL     OW61359   0.231   2.731   8.908  0.6156 -0.0609 -0.1275
19973SOL    HW161360   0.221   2.813   8.859 -0.8665 -0.2889 -0.2404
19973SOL    HW261361   0.249   2.666   8.841 -0.1621 -0.1538 -0.2578
19974SOL     OW61362   3.992   1.377   8.823  0.4378 -0.4379 -0.2376
19974SOL    HW161363   3.902   1.365   8.855  0.4112  1.1689  0.3585
19974SOL    HW261364   4.046   1.368   8.901  0.6406  0.3052 -0.2866
19975SOL     OW61365   5.659   2.163   8.033 -0.3379 -0.0664  0.1073
19975SOL    HW161366   5.576   2.199   8.065 -1.8547 -1.6206 -1.8188
19975SOL    HW261367   5.702   2.130   8.112 -3.1400 -2.2519  0.9278
19976SOL     OW61368   7.254   2.375   9.926  0.1041 -0.0545  0.0798
19976SOL    HW161369   7.257   2.299   9.868 -1.7178  0.9148 -1.3973
19976SOL    HW261370   7.293   2.345  10.008 -0.0484 -2.3911 -0.6494
19977SOL     OW61371   6.801   3.986   8.240  0.3821  0.4199  0.1835
19977SOL    HW161372   6.819   3.996   8.334 -0.1888  0.8379  0.2491
19977SOL    HW261373   6.721   3.934   8.237 -0.7928  2.1628 -0.0161
19978SOL     OW61374   6.348   1.591   8.158 -0.4503 -0.1446  0.2646
19978SOL    HW161375   6.326   1.624   8.071 -1.0388 -1.3689 -0.0728
19978SOL    HW261376   6.443   1.584   8.158 -0.4127  0.3051 -0.0998
19979SOL     OW61377   5.669   2.960   6.851  0.2640 -0.1662 -0.4333
19979SOL    HW161378   5.764   2.950   6.858  0.5507  1.7915 -0.9035
19979SOL    HW261379   5.653   2.963   6.756 -0.0741  0.9659 -0.3472
19980SOL     OW61380   4.995   2.304   9.813 -0.5169  0.6419 -0.3496
19980SOL    HW161381   5.009   2.209   9.814 -1.2811  0.5356  0.4214
19980SOL    HW261382   4.939   2.319   9.736 -1.5198  0.2987  0.2961
19981SOL     OW61383   7.146   3.166   7.082 -0.6368 -0.1761 -0.5900
19981SOL    HW161384   7.207   3.188   7.153 -0.7943  0.3101 -0.6061
19981SOL    HW261385   7.142   3.244   7.028  0.8407 -1.1098 -2.1502
19982SOL     OW61386   5.132   3.256  11.129 -0.5455  0.0606  0.1399
19982SOL    HW161387   5.047   3.260  11.086 -0.6995  1.0834  0.5254
19982SOL    HW261388   5.120   3.299  11.213  0.1488 -0.5340  0.5639
19983SOL     OW61389   5.233   3.491   9.530  0.3229  0.2915 -0.7738
19983SOL    HW161390   5.256   3.402   9.503  1.6681  0.8654 -1.6588
19983SOL    HW261391   5.295   3.546   9.482  0.1296  1.6396  0.4717
19984SOL     OW61392   7.912   1.073   9.416 -0.0894 -0.0629 -0.0353
19984SOL    HW161393   7.851   1.017   9.464  0.8289 -0.4359  0.7310
19984SOL    HW261394   7.997   1.030   9.425  0.3350  0.5636 -0.8843
19985SOL     OW61395   7.254   2.122   9.821  0.2091 -0.3772  0.2175
19985SOL    HW161396   7.172   2.085   9.854 -0.4039  0.0323 -0.7889
19985SOL    HW261397   7.315   2.049   9.821  0.2244 -0.4087  2.1406
19986SOL     OW61398   5.345   2.081   8.017  1.4240 -0.0813  0.7680
19986SOL    HW161399   5.381   2.095   7.929  1.3167  0.9224  0.8802
19986SOL    HW261400   5.378   2.154   8.069 -1.3615  1.3632  0.6857
19987SOL     OW61401   0.708   2.184   7.644 -0.3209  0.2118  0.0760
19987SOL    HW161402   0.641   2.251   7.631 -0.6391 -0.3834 -1.6367
19987SOL    HW261403   0.663   2.113   7.690 -0.1078  0.9348  1.4528
19988SOL     OW61404   6.778   3.958   8.567 -0.0630 -0.3176 -0.0955
19988SOL    HW161405   6.695   4.004   8.562 -0.2893 -0.8030 -1.1018
19988SOL    HW261406   6.754   3.865   8.566  0.4718 -0.4624 -0.1114
19989SOL     OW61407   6.200   5.030   9.006  0.8487 -0.2879  0.2125
19989SOL    HW161408   6.161   5.111   8.973  0.6734  0.7410  2.7167
19989SOL    HW261409   6.133   4.963   8.990  0.9747  0.0092 -1.8351
19990SOL     OW61410   0.537   2.812   8.829 -0.1443 -0.4771 -0.2504
19990SOL    HW161411   0.554   2.834   8.737 -0.3721 -0.7531 -0.3576
19990SOL    HW261412   0.549   2.718   8.834 -3.8448 -1.1335 -0.8522
19991SOL     OW61413   5.044   2.968  11.131  0.1899 -0.7393 -0.2314
19991SOL    HW161414   5.109   3.025  11.090 -0.1919 -0.7463 -0.8770
19991SOL    HW261415   4.961   2.996  11.092 -0.3536  0.0293  1.3905
19992SOL     OW61416   7.583   2.249   6.014  0.2627  0.4909 -0.2376
19992SOL    HW161417   7.555   2.158   6.009  1.8629  0.0295 -1.8095
19992SOL    HW261418   7.506   2.300   5.989 -0.1994 -0.5120 -0.8710
19993SOL     OW61419   6.673   1.434   8.171 -0.2233  0.0657  0.7587
19993SOL    HW161420   6.696   1.521   8.139 -1.4220  0.6006  1.2874
19993SOL    HW261421   6.716   1.426   8.256  0.0138  0.0713  0.6397
19994SOL     OW61422   5.203   2.472   9.865 -0.1127 -0.0809  0.2536
19994SOL    HW161423   5.130   2.412   9.847  0.1549  0.3785 -3.1772
19994SOL    HW261424   5.160   2.554   9.890 -0.8735  0.1414 -1.5828
19995SOL     OW61425   5.341   3.227  10.058 -0.2074  0.2448 -0.0766
19995SOL    HW161426   5.393   3.291  10.106  0.3755  0.5036 -1.0275
19995SOL    HW261427   5.314   3.273   9.978  0.0478 -0.6131 -0.6772
19996SOL     OW61428   6.336   4.406   9.180 -0.2556  0.2545  0.4167
19996SOL    HW161429   6.285   4.331   9.211  0.5048 -0.4847 -0.0663
19996SOL    HW261430   6.421   4.396   9.224  0.0434  0.4983 -0.0953
19997SOL     OW61431   6.274   1.564   9.789 -0.0604  0.1514 -0.3708
19997SOL    HW161432   6.191   1.576   9.835 -0.4178 -0.6198 -0.7967
19997SOL    HW261433   6.287   1.646   9.740 -0.0709  0.6611  0.4585
19998SOL     OW61434   6.445   3.919   9.503 -0.0042 -0.4832 -0.3130
19998SOL    HW161435   6.515   3.954   9.447  1.1949 -0.9016  0.8611
19998SOL    HW261436   6.488   3.851   9.555 -0.7760  0.6432  1.9107
19999SOL     OW61437   6.208   3.177   7.609 -0.1402 -0.2077  0.4069
19999SOL    HW161438   6.265   3.176   7.532  0.4342 -1.2176  0.8357
19999SOL    HW261439   6.204   3.270   7.634 -0.2365  0.1132 -0.7594
20000SOL     OW61440   5.710   5.011   9.362 -0.3903  0.8217 -0.2625
20000SOL    HW161441   5.701   5.103   9.337  2.8024  0.9997 -1.1946
20000SOL    HW261442   5.742   5.014   9.452  0.5922  0.6996 -0.5960
20001SOL     OW61443   5.453   3.800   9.113  0.1772  0.4188 -0.2719
20001SOL    HW161444   5.418   3.844   9.036  1.2918  0.2865 -0.8736
20001SOL    HW261445   5.481   3.714   9.081 -2.3250 -0.9718  0.9591
20002SOL     OW61446   6.860   2.860   6.124 -0.3634 -1.0311  0.3020
20002SOL    HW161447   6.837   2.782   6.073  0.3675  0.1718 -2.0097
20002SOL    HW261448   6.955   2.869   6.111 -0.4896  0.4132  0.2612
20003SOL     OW61449   4.331   2.178   7.319  0.3086 -0.4788 -0.3914
20003SOL    HW161450   4.346   2.087   7.342  0.9537 -0.3831 -0.3985
20003SOL    HW261451   4.237   2.190   7.326  0.3367 -0.8281  0.7887
20004SOL     OW61452   5.028   3.432   9.879 -0.4985 -0.5925  0.0902
20004SOL    HW161453   5.036   3.513   9.829 -0.3841 -0.7302 -0.1167
20004SOL    HW261454   5.051   3.456   9.968 -1.0290 -0.2722  0.1471
20005SOL     OW61455   6.499   1.719   9.091  0.3531  0.0066  0.1783
20005SOL    HW161456   6.406   1.705   9.105  0.5739 -0.8559  0.8447
20005SOL    HW261457   6.541   1.641   9.127  1.3833  0.7437  0.6149
20006SOL     OW61458   5.001   1.785   8.463  0.3652  0.3502 -0.1500
20006SOL    HW161459   5.029   1.723   8.530 -0.5226 -0.3456 -0.3948
20006SOL    HW261460   5.054   1.764   8.387  0.1694 -0.0150 -0.1864
20007SOL     OW61461   6.593   2.488   8.212  0.2629  0.2858  0.4388
20007SOL    HW161462   6.520   2.476   8.272  1.4409 -1.3016  1.6584
20007SOL    HW261463   6.575   2.426   8.141 -0.0587  0.6170  0.2273
20008SOL     OW61464   5.225   3.406   9.055 -0.1123  0.6765  0.0982
20008SOL    HW161465   5.239   3.361   8.972 -0.9625  0.2080  0.1998
20008SOL    HW261466   5.209   3.497   9.030 -1.8543  0.2645 -0.3827
20009SOL     OW61467   5.932   2.038   9.231  0.8179 -0.8087 -0.2254
20009SOL    HW161468   5.847   2.046   9.189  0.1645 -0.7925  1.0489
20009SOL    HW261469   5.956   2.129   9.252 -0.2891 -0.9695  2.0943
20010SOL     OW61470   4.733   2.290   8.626  0.5795 -0.9087  0.5610
20010SOL    HW161471   4.790   2.297   8.550 -1.8792 -0.6996 -1.3928
20010SOL    HW261472   4.646   2.310   8.592 -0.7668 -1.7664  3.2601
20011SOL     OW61473   6.058   3.070   5.643  0.1005 -0.3983  0.2854
20011SOL    HW161474   6.149   3.042   5.643  0.5838  0.9660 -1.7868
20011SOL    HW261475   6.057   3.150   5.697  0.7393  1.1179 -1.8234
20012SOL     OW61476   4.355   2.749   8.694 -0.3130 -0.6698  0.2099
20012SOL    HW161477   4.288   2.682   8.709 -1.3765  0.1742 -0.6876
20012SOL    HW261478   4.348   2.770   8.601  1.2196 -0.5698  0.0877
20013SOL     OW61479   6.207   1.862   8.821  0.4644 -0.3801 -0.5116
20013SOL    HW161480   6.127   1.856   8.872  0.8745  0.2693  0.2272
20013SOL    HW261481   6.185   1.924   8.751  0.1342 -0.6809 -0.6774
20014SOL     OW61482   7.536   4.138   7.823 -0.7333 -0.3665 -0.1964
20014SOL    HW161483   7.571   4.154   7.910  1.9074 -1.1564 -1.0195
20014SOL    HW261484   7.571   4.209   7.769 -1.2502 -0.6069 -0.8667
20015SOL     OW61485   6.482   3.946   8.784  0.5225 -0.4716 -0.3253
20015SOL    HW161486   6.500   3.881   8.715  0.2080 -3.0873  1.8774
20015SOL    HW261487   6.391   3.931   8.808  0.2677  1.2211 -0.1104
20016SOL     OW61488   4.661   2.060   7.475  0.5156 -0.5574 -0.3008
20016SOL    HW161489   4.672   1.967   7.495  3.2275 -0.6863 -1.8620
20016SOL    HW261490   4.595   2.090   7.537  1.0938 -3.0499  1.7102
20017SOL     OW61491   6.818   4.709   9.301 -0.7040 -0.0389  0.7628
20017SOL    HW161492   6.845   4.627   9.259 -1.2235  0.4829 -0.6331
20017SOL    HW261493   6.839   4.696   9.394 -0.5594 -1.6567  0.5350
20018SOL     OW61494   7.470   0.240   8.211  0.1708  0.4915 -0.5188
20018SOL    HW161495   7.493   0.298   8.138  0.2094  1.0810 -0.0511
20018SOL    HW261496   7.554   0.205   8.241  0.1252 -0.0181 -0.9622
20019SOL     OW61497   6.635   4.381   8.678 -0.1663  0.2043 -0.3699
20019SOL    HW161498   6.584   4.440   8.734 -0.7824 -0.2272 -0.4781
20019SOL    HW261499   6.716   4.365   8.727 -0.9774 -0.6946  0.7023
20020SOL     OW61500   6.131   4.697  11.218  0.1765 -0.3635 -0.5692
20020SOL    HW161501   6.143   4.620  11.273 -0.8295  0.0676  0.3060
20020SOL    HW261502   6.219   4.719  11.187  1.0327  0.1429  1.9549
20021SOL     OW61503   0.227   2.883   8.498 -0.5638 -0.1939  0.5179
20021SOL    HW161504   0.160   2.823   8.531 -1.0569  0.5290  0.8270
20021SOL    HW261505   0.309   2.847   8.533 -0.6819 -1.5203 -0.4903
20022SOL     OW61506   6.305   2.684   8.015 -0.2135 -0.3239  0.5462
20022SOL    HW161507   6.271   2.702   8.103 -0.2272 -2.1406  0.9517
20022SOL    HW261508   6.280   2.593   7.997  0.7057 -0.3289 -0.9090
20023SOL     OW61509   7.662   3.763   8.337  0.4924  0.3576 -0.1551
20023SOL    HW161510   7.640   3.706   8.263  1.3426  1.3818 -1.2351
20023SOL    HW261511   7.589   3.824   8.344  0.8687  0.9079 -0.8404
20024SOL     OW61512   7.778   2.628   8.103 -0.1996  0.4434 -0.1416
20024SOL    HW161513   7.802   2.714   8.138  1.1053  0.3575 -0.7372
20024SOL    HW261514   7.817   2.566   8.164 -0.9625  0.2705  0.1740
20025SOL     OW61515   0.527   7.747   8.462  0.2478 -0.4212 -0.4680
20025SOL    HW161516   0.572   7.674   8.504  1.6133  0.3190 -0.5778
20025SOL    HW261517   0.502   7.714   8.376 -0.4223 -1.1950  0.0202
20026SOL     OW61518   6.699   2.840   8.785 -0.2751  0.4245  0.1706
20026SOL    HW161519   6.684   2.929   8.816  1.8607  1.2268 -0.8754
20026SOL    HW261520   6.783   2.815   8.823  1.0846  0.4068 -2.5734
20027SOL     OW61521   5.086   2.071   8.450  0.1402  0.2724 -0.1355
20027SOL    HW161522   5.036   2.103   8.375  0.9588 -0.0535 -0.8379
20027SOL    HW261523   5.045   1.987   8.471 -1.3493  1.2535  1.0573
20028SOL     OW61524   6.471   3.599   9.410 -0.1756 -0.5703 -0.1593
20028SOL    HW161525   6.489   3.635   9.323 -0.8247 -1.7574 -0.8057
20028SOL    HW261526   6.519   3.516   9.411 -0.5697 -0.7895  0.4402
20029SOL     OW61527   5.297   2.724   8.538  0.2993  0.3833  0.4652
20029SOL    HW161528   5.259   2.812   8.543  1.6346  0.9577  1.1945
20029SOL    HW261529   5.341   2.723   8.453  0.1578  0.3680  0.3920
20030SOL     OW61530   7.030   3.733   8.599  0.0539  0.5331 -0.1197
20030SOL    HW161531   6.944   3.696   8.618  0.5413 -0.1628  0.7788
20030SOL    HW261532   7.077   3.663   8.554 -0.0765  1.1651 -1.2898
20031SOL     OW61533   5.087   2.033   9.781 -0.5723 -0.1176  0.1614
20031SOL    HW161534   5.045   1.976   9.846 -0.1273  0.5782  1.0769
20031SOL    HW261535   5.180   2.030   9.804 -0.4698  0.4909 -0.1672
20032SOL     OW61536   0.406   2.512   9.482  0.4769  0.2660 -0.0682
20032SOL    HW161537   0.496   2.485   9.466  0.7376 -0.8474  2.6558
20032SOL    HW261538   0.354   2.462   9.418  1.5346 -1.8696  0.6498
20033SOL     OW61539   6.558   1.957   8.366 -0.0832  0.2374 -0.1930
20033SOL    HW161540   6.634   1.904   8.391  0.0339  0.7844  0.6368
20033SOL    HW261541   6.566   1.966   8.271 -0.1474 -1.2712 -0.3640
20034SOL     OW61542   7.511   2.656   8.945  0.0028  0.1131  0.4995
20034SOL    HW161543   7.447   2.710   8.898 -0.1510 -1.5653 -1.3537
20034SOL    HW261544   7.550   2.601   8.878  1.1152 -1.1595  2.1019
20035SOL     OW61545   6.004   2.635   8.540 -0.2724  0.2066 -0.0556
20035SOL    HW161546   6.079   2.598   8.493 -0.4947 -0.6915  0.2878
20035SOL    HW261547   6.042   2.698   8.601  0.2593 -0.5624  0.4280
20036SOL     OW61548   7.914   2.494   8.302 -0.3344  0.5197  0.0929
20036SOL    HW161549   7.943   2.578   8.338 -0.9289  0.3784  0.9234
20036SOL    HW261550   7.970   2.429   8.344 -0.7117  0.3947  0.4061
20037SOL     OW61551   5.408   3.807   8.692 -0.2340 -0.0554 -0.6406
20037SOL    HW161552   5.358   3.838   8.768 -0.9693  0.1408 -1.1966
20037SOL    HW261553   5.342   3.791   8.625  0.0766 -2.8476 -0.4009
20038SOL     OW61554   5.605   4.834   9.985  0.4058  0.5935  0.4933
20038SOL    HW161555   5.655   4.889  10.045 -1.0961  1.4561  1.0089
20038SOL    HW261556   5.655   4.834   9.904  1.8336  0.4309  1.3389
20039SOL     OW61557   6.758   4.335  10.840 -0.2710  0.2729 -0.3305
20039SOL    HW161558   6.805   4.281  10.904  1.4517  0.9824 -0.9375
20039SOL    HW261559   6.781   4.425  10.863  2.3104  0.5130 -3.2574
20040SOL     OW61560   5.536   1.148   8.284 -0.2625 -0.2041  0.3320
20040SOL    HW161561   5.586   1.115   8.359  0.4477  0.7206  0.2868
20040SOL    HW261562   5.474   1.211   8.322  0.1885  0.3633  0.1404
20041SOL     OW61563   7.837   1.205   9.197 -0.3986 -0.5809  0.1726
20041SOL    HW161564   7.869   1.144   9.264  0.3988 -0.7533 -0.3491
20041SOL    HW261565   7.834   1.153   9.117 -0.0304 -0.0230 -0.2103
20042SOL     OW61566   0.544   1.831   8.028 -0.1935 -0.3409 -0.6316
20042SOL    HW161567   0.476   1.898   8.035 -0.5320 -0.5945 -1.3768
20042SOL    HW261568   0.550   1.795   8.117 -1.9415 -1.1822 -0.8030
20043SOL     OW61569   0.877   0.553   8.004 -0.0045  0.0395 -0.0642
20043SOL    HW161570   0.954   0.504   8.031 -0.0135  0.0783  0.0348
20043SOL    HW261571   0.844   0.592   8.085  1.6186  2.5569 -0.4787
20044SOL     OW61572   4.616   2.043   9.269 -0.6658  0.0562 -0.1230
20044SOL    HW161573   4.584   2.002   9.349 -1.2463 -0.2300 -0.4935
20044SOL    HW261574   4.687   2.101   9.298  0.0541 -1.0656  0.4393
20045SOL     OW61575   5.899   4.849   9.826 -0.2818 -0.5443  0.0401
20045SOL    HW161576   5.993   4.859   9.811 -0.5526 -0.7470 -2.0834
20045SOL    HW261577   5.884   4.754   9.826 -0.4773 -0.5168  0.4909
20046SOL     OW61578   7.543   1.873   8.725 -0.1245 -0.3298 -0.6458
20046SOL    HW161579   7.561   1.801   8.664  1.8656 -0.2520 -0.2443
20046SOL    HW261580   7.598   1.853   8.801  0.6473  1.7193 -0.6216
20047SOL     OW61581   2.300   2.049   7.434 -0.1053  0.2673 -0.3401
20047SOL    HW161582   2.245   1.986   7.386 -1.0383  1.0614 -0.3641
20047SOL    HW261583   2.278   2.034   7.526 -0.3513  0.5574 -0.3475
20048SOL     OW61584   5.783   4.682   8.715  0.2792 -0.3700 -0.0827
20048SOL    HW161585   5.817   4.764   8.752 -0.8493  0.2526 -0.3708
20048SOL    HW261586   5.843   4.614   8.748  1.9305  0.6844 -0.7718
20049SOL     OW61587   0.617   2.133   8.228 -0.5545 -0.2174  0.5120
20049SOL    HW161588   0.536   2.095   8.192  0.2217 -2.8045  1.2896
20049SOL    HW261589   0.599   2.144   8.321 -0.6122  0.9810  0.3702
20050SOL     OW61590   1.023   0.743   7.859  0.0733 -0.2444  0.2798
20050SOL    HW161591   0.969   0.679   7.905  0.0434  0.8237  1.7958
20050SOL    HW261592   1.046   0.808   7.926  0.9048  0.8137 -0.9828
20051SOL     OW61593   6.806   2.046   8.679  0.2570 -0.1530 -0.2696
20051SOL    HW161594   6.797   2.003   8.764  2.5298 -0.4312 -0.1104
20051SOL    HW261595   6.856   2.126   8.698  2.2452 -1.0246 -1.4996
20052SOL     OW61596   7.876   3.159   8.494  0.3301  0.2414 -0.2189
20052SOL    HW161597   7.862   3.086   8.554 -0.0003 -1.2094 -1.9846
20052SOL    HW261598   7.788   3.196   8.480 -0.1277 -1.4139 -2.1621
20053SOL     OW61599   6.099   4.509   9.353 -0.4303 -0.1942  0.6463
20053SOL    HW161600   6.180   4.487   9.305  1.5176  0.9089  3.1856
20053SOL    HW261601   6.029   4.491   9.290  1.8296  0.0720 -2.1927
20054SOL     OW61602   5.840   3.943   8.093 -0.2821 -0.3849 -0.6030
20054SOL    HW161603   5.791   3.992   8.160 -0.8429 -2.5487  0.6617
20054SOL    HW261604   5.925   3.927   8.133 -0.3286 -0.9945 -0.7473
20055SOL     OW61605   5.675   4.252   8.508 -0.6574  0.3145  0.2307
20055SOL    HW161606   5.703   4.339   8.481  0.3396  0.4027  1.4664
20055SOL    HW261607   5.579   4.256   8.509 -0.6298  1.2036 -0.3008
20056SOL     OW61608   6.628   3.390   8.994  0.4263 -0.2383 -0.1344
20056SOL    HW161609   6.683   3.320   8.958 -1.0177 -0.7615 -1.4387
20056SOL    HW261610   6.621   3.454   8.922  1.2155  0.9647  0.8263
20057SOL     OW61611   5.945   2.918   9.681 -0.0317 -0.3601  0.7649
20057SOL    HW161612   6.010   2.904   9.750  0.6319 -0.0687  0.2169
20057SOL    HW261613   5.932   3.013   9.679  0.3589 -0.3109  0.1418
20058SOL     OW61614   0.800   1.998   9.930  0.3995  0.0243 -0.1137
20058SOL    HW161615   0.726   1.982   9.988 -0.5814  1.2846 -0.9663
20058SOL    HW261616   0.876   1.966   9.979 -0.6402 -0.8533  0.9744
20059SOL     OW61617   5.284   3.232  10.762  0.3585  0.1331  0.0302
20059SOL    HW161618   5.249   3.214  10.675  0.9239 -0.0350 -0.1710
20059SOL    HW261619   5.375   3.259  10.745  0.6220 -0.3883  0.6063
20060SOL     OW61620   5.980   2.898   6.998 -0.8236 -0.7512  0.4398
20060SOL    HW161621   6.021   2.982   6.979 -2.4337 -0.2922 -1.2898
20060SOL    HW261622   6.047   2.833   6.974 -0.2153  0.0073  0.0300
20061SOL     OW61623   6.146   2.072   8.632  0.3039  0.1124 -0.1815
20061SOL    HW161624   6.073   2.112   8.679  1.5519  3.4238 -0.8052
20061SOL    HW261625   6.224   2.110   8.672  1.6691 -1.6713 -0.9819
20062SOL     OW61626   6.638   3.542  10.197 -0.4106 -0.2479 -0.7187
20062SOL    HW161627   6.550   3.519  10.228  0.1329 -0.6422  0.5972
20062SOL    HW261628   6.664   3.614  10.253  1.1473 -1.8727  0.7583
20063SOL     OW61629   4.946   1.368   8.615 -0.1323  0.0188  0.0303
20063SOL    HW161630   4.860   1.402   8.636 -0.2524  0.7006 -1.4297
20063SOL    HW261631   4.931   1.306   8.544  0.7310  1.6398 -1.6757
20064SOL     OW61632   1.148   3.687  10.850  0.5132  0.4341  0.3460
20064SOL    HW161633   1.179   3.699  10.760  0.6635  0.8848  0.4554
20064SOL    HW261634   1.111   3.772  10.875 -0.2641  0.0764  0.4311
20065SOL     OW61635   4.869   2.811  10.836 -0.1718 -0.3827  0.1315
20065SOL    HW161636   4.821   2.771  10.764 -0.6358 -0.1062  0.2778
20065SOL    HW261637   4.956   2.830  10.800 -0.4062 -0.2293 -0.3578
20066SOL     OW61638   6.645   2.870   8.276  0.0469  0.5324 -0.2660
20066SOL    HW161639   6.738   2.883   8.259  0.2854  0.4702  0.8780
20066SOL    HW261640   6.642   2.833   8.364 -0.9062 -2.0246 -1.2889
20067SOL     OW61641   5.768   2.773   8.664  0.4063  0.5440  0.4667
20067SOL    HW161642   5.800   2.719   8.737 -0.3857 -0.5741  0.0130
20067SOL    HW261643   5.837   2.768   8.599  0.4254  0.2172  0.5069
20068SOL     OW61644   6.581   2.415   8.652  0.1747  0.0210  0.5164
20068SOL    HW161645   6.643   2.457   8.593  0.2230 -0.2419  0.3791
20068SOL    HW261646   6.579   2.323   8.624 -2.4659  0.5367 -1.4201
20069SOL     OW61647   5.388   1.251   7.802  0.2630  0.1368  0.1996
20069SOL    HW161648   5.439   1.293   7.733  1.2188  1.0813  1.4295
20069SOL    HW261649   5.323   1.317   7.827 -1.2581 -0.8551 -0.9756
20070SOL     OW61650   6.022   3.220   8.366 -0.1278 -0.5117 -0.2458
20070SOL    HW161651   6.075   3.204   8.287  1.0541  2.4040 -0.1499
20070SOL    HW261652   6.024   3.136   8.412  2.6363 -1.1813 -1.3223
20071SOL     OW61653   5.679   3.174   7.572 -0.6557  0.3417 -0.0367
20071SOL    HW161654   5.641   3.199   7.656  0.5936  1.5803  0.2095
20071SOL    HW261655   5.667   3.079   7.567  0.6060 -0.0280  2.2969
20072SOL     OW61656   6.693   1.284   9.401  0.0415  0.4130  0.2207
20072SOL    HW161657   6.634   1.211   9.419  0.5702 -0.0417  0.1301
20072SOL    HW261658   6.771   1.244   9.363  0.6516  0.9416  0.8776
20073SOL     OW61659   0.324   1.440   8.642 -0.1169  0.1025  0.1080
20073SOL    HW161660   0.270   1.445   8.564  0.0642  1.6181  0.0478
20073SOL    HW261661   0.414   1.441   8.610 -0.0236 -1.1984  0.2685
20074SOL     OW61662   5.507   1.988   7.348 -0.2423 -0.5497 -0.5577
20074SOL    HW161663   5.591   1.964   7.386 -0.6715  0.3478  1.0880
20074SOL    HW261664   5.504   2.084   7.356 -2.4664 -0.7074  1.9422
20075SOL     OW61665   6.965   4.189   8.437 -0.2057 -0.3380 -1.1095
20075SOL    HW161666   6.958   4.220   8.347  1.8288  0.8671 -0.9051
20075SOL    HW261667   6.992   4.265   8.488 -0.1035 -1.2812  0.3220
20076SOL     OW61668   4.220   1.943  10.893 -0.1980 -0.3759 -0.2687
20076SOL    HW161669   4.177   1.979  10.816 -0.4335 -0.9026 -0.3907
20076SOL    HW261670   4.313   1.940  10.869 -0.1722  0.1807 -0.2398
20077SOL     OW61671   5.409   0.600  10.822 -0.3151 -0.0214  0.6355
20077SOL    HW161672   5.442   0.653  10.894 -0.3499  0.9873 -0.0677
20077SOL    HW261673   5.487   0.559  10.785 -0.1771  0.2239  0.6498
20078SOL     OW61674   4.353   2.822  10.423 -0.0765 -0.0789 -0.1051
20078SOL    HW161675   4.340   2.858  10.511  0.0602  1.4428 -0.6736
20078SOL    HW261676   4.279   2.855  10.372 -0.4350 -1.3842 -0.4443
20079SOL     OW61677   5.596   2.657  10.963  0.1779  0.2321  0.1118
20079SOL    HW161678   5.679   2.608  10.960  1.0417  1.4060  2.3894
20079SOL    HW261679   5.622   2.746  10.989 -1.7644  0.7199  0.5377
20080SOL     OW61680   0.556   3.334   9.690 -0.5039  0.1510 -0.2578
20080SOL    HW161681   0.467   3.303   9.674 -0.6836  0.2818  0.4513
20080SOL    HW261682   0.552   3.429   9.677 -0.3107  0.0753 -0.8912
20081SOL     OW61683   6.022   3.454   9.632  0.2063 -0.3998  0.1295
20081SOL    HW161684   5.939   3.408   9.617  0.3834 -0.8778  0.5593
20081SOL    HW261685   6.070   3.443   9.550 -0.0066 -0.4323  0.0061
20082SOL     OW61686   0.834   2.082   9.183 -0.0116 -0.6648  0.1686
20082SOL    HW161687   0.918   2.053   9.148  0.9210  1.1430  0.7645
20082SOL    HW261688   0.852   2.102   9.275 -1.0078  0.0871  0.2222
20083SOL     OW61689   4.533   4.963   9.604  0.2488  0.1870  0.7116
20083SOL    HW161690   4.564   5.008   9.682  0.1248 -0.2385  1.0090
20083SOL    HW261691   4.481   5.028   9.558 -0.4817  0.1641  1.4755
20084SOL     OW61692   4.040   6.250   9.109 -0.1118 -0.2998  0.2669
20084SOL    HW161693   4.062   6.180   9.047  0.0293  2.5677 -3.2616
20084SOL    HW261694   4.118   6.304   9.113 -0.3296 -0.0499  2.6659
20085SOL     OW61695   6.034   3.040  10.352 -0.0077  0.1942  0.0697
20085SOL    HW161696   5.996   3.128  10.345  0.5538  0.3933 -0.6057
20085SOL    HW261697   6.055   3.017  10.261  0.0654 -0.5411  0.2747
20086SOL     OW61698   6.656   1.694  10.246  0.3964 -0.4605 -0.2278
20086SOL    HW161699   6.666   1.788  10.264 -0.6015  0.0510 -2.1552
20086SOL    HW261700   6.676   1.652  10.330 -1.8101  1.6087  1.4928
20087SOL     OW61701   0.322   5.598   9.623 -0.1820 -0.0631 -0.2931
20087SOL    HW161702   0.336   5.564   9.711 -0.8272 -0.8268 -0.4721
20087SOL    HW261703   0.357   5.530   9.566 -2.3301 -0.8987 -0.6825
20088SOL     OW61704   4.689   1.991   9.880 -0.0049 -0.1022  0.1324
20088SOL    HW161705   4.731   2.006   9.964  2.3905 -0.0627 -1.0005
20088SOL    HW261706   4.761   1.978   9.818 -1.6277  1.0491 -2.1546
20089SOL     OW61707   7.961   3.118  10.165 -0.0065 -0.2440  0.3693
20089SOL    HW161708   7.950   3.186  10.098 -0.0182  0.7571  1.3627
20089SOL    HW261709   8.055   3.099  10.163 -0.1814 -1.0988 -0.7472
20090SOL     OW61710   3.280   1.915  11.078 -0.2260  0.4634 -0.1254
20090SOL    HW161711   3.236   1.959  11.006 -1.7997 -1.3111 -0.3298
20090SOL    HW261712   3.315   1.835  11.040  0.9131  0.5661  0.6322
20091SOL     OW61713   6.488   4.144  10.613 -0.1133 -0.3143  0.2244
20091SOL    HW161714   6.503   4.077  10.680  2.3753 -0.3303 -0.2496
20091SOL    HW261715   6.556   4.209  10.629  0.3884 -0.1861 -2.0727
20092SOL     OW61716   4.174   3.295  11.513 -0.2630  0.3327  0.0628
20092SOL    HW161717   4.111   3.310  11.442  1.6616  1.5231 -1.5187
20092SOL    HW261718   4.228   3.222  11.483  0.6456  0.9207  0.2114
20093SOL     OW61719   5.456   2.380  11.234 -0.2548  0.5937 -0.3409
20093SOL    HW161720   5.376   2.333  11.260  1.3884 -0.8605  2.5387
20093SOL    HW261721   5.453   2.380  11.138 -4.2298  1.6806 -0.4048
20094SOL     OW61722   4.098   4.713  12.090 -0.4762 -0.0347 -0.0088
20094SOL    HW161723   4.100   4.723  11.995  0.1573  0.8338  0.0863
20094SOL    HW261724   4.131   4.624  12.105  1.6626  0.5932 -0.5287
20095SOL     OW61725   4.582   3.495  10.546 -0.6302 -0.1139 -0.2648
20095SOL    HW161726   4.495   3.534  10.535 -1.0474 -1.3615 -1.7042
20095SOL    HW261727   4.643   3.567  10.528 -1.3543  0.6139  0.1345
20096SOL     OW61728   6.405   3.613  11.220  0.0521  0.3134  0.1668
20096SOL    HW161729   6.422   3.679  11.153  0.5767 -0.4747 -0.4965
20096SOL    HW261730   6.310   3.610  11.227 -0.2300 -1.5596 -2.6390
20097SOL     OW61731   4.880   3.298  11.026 -0.2571 -0.1692  0.1493
20097SOL    HW161732   4.823   3.347  11.085 -0.7718 -2.6695  1.8486
20097SOL    HW261733   4.821   3.261  10.960 -0.1523 -0.2371  0.0932
20098SOL     OW61734   7.271   4.746   9.634 -0.4225 -0.1405  0.2751
20098SOL    HW161735   7.355   4.711   9.604 -1.3195 -2.4124  0.1666
20098SOL    HW261736   7.288   4.838   9.653  1.8110 -0.2772 -0.7678
20099SOL     OW61737   6.773   3.340  10.080  0.1970 -0.0460  0.0724
20099SOL    HW161738   6.746   3.395  10.153 -1.9838  0.9927 -1.4186
20099SOL    HW261739   6.737   3.383  10.003 -0.8286 -3.0308 -1.2667
20100SOL     OW61740   6.702   3.719  11.066  0.3851 -0.6163 -0.1252
20100SOL    HW161741   6.736   3.783  11.129  1.3496  0.1117 -1.3518
20100SOL    HW261742   6.766   3.718  10.995 -1.3627 -0.3626 -1.7932
20101SOL     OW61743   1.148   2.993   9.160 -0.2942  0.3777 -0.2127
20101SOL    HW161744   1.145   2.899   9.144 -0.6241  1.0111 -6.0529
20101SOL    HW261745   1.240   3.017   9.146  0.2701  0.8712  3.4295
20102SOL     OW61746   6.899   2.996  11.056  0.0593  0.0057  0.8798
20102SOL    HW161747   6.906   2.905  11.026  0.2100 -0.1788  1.4564
20102SOL    HW261748   6.938   2.995  11.144 -0.5292  0.4890  1.1541
20103SOL     OW61749   5.200   3.855   9.661 -0.0939 -0.2207 -0.3552
20103SOL    HW161750   5.134   3.836   9.595 -0.2654  0.9128 -0.5199
20103SOL    HW261751   5.269   3.901   9.614 -0.8268  1.8227  0.4604
20104SOL     OW61752   5.445   3.030   9.695 -0.3321  0.0800  0.3641
20104SOL    HW161753   5.520   2.975   9.674  2.0294  3.9574 -2.6179
20104SOL    HW261754   5.377   3.002   9.634  1.1258  0.7858 -1.7208
20105SOL     OW61755   5.932   2.341  10.884  0.2599 -0.0055 -0.0212
20105SOL    HW161756   6.000   2.332  10.817  0.5956 -0.7967  0.4022
20105SOL    HW261757   5.958   2.278  10.952 -0.8951 -0.3020  0.1536
20106SOL     OW61758   5.234   3.035   9.871  0.3695 -0.0606  0.0228
20106SOL    HW161759   5.305   3.015   9.932 -0.0796  1.5757  1.1283
20106SOL    HW261760   5.277   3.081   9.799  0.6572 -0.5031 -0.0919
20107SOL     OW61761   6.453   2.376   9.189  0.3268  0.0829 -0.2654
20107SOL    HW161762   6.413   2.437   9.251 -0.9558 -0.6673 -0.3299
20107SOL    HW261763   6.473   2.298   9.241 -0.6393 -0.5031 -0.7348
20108SOL     OW61764   5.168   5.544  12.014 -0.3645 -0.7092  0.4669
20108SOL    HW161765   5.171   5.613  11.947 -1.3153  1.5838  2.6442
20108SOL    HW261766   5.259   5.513  12.021 -0.0503 -0.2227 -1.0476
20109SOL     OW61767   6.627   2.717  11.224  0.1953  0.1033  0.3571
20109SOL    HW161768   6.581   2.642  11.188  1.8453 -0.1047 -1.5225
20109SOL    HW261769   6.716   2.686  11.239  1.1478  1.8472 -1.2483
20110SOL     OW61770   7.347   1.360   9.863 -0.1058 -0.0671  0.1748
20110SOL    HW161771   7.361   1.429   9.928  0.6307  0.3048 -0.3601
20110SOL    HW261772   7.293   1.295   9.908 -0.1018  0.4638  0.9630
20111SOL     OW61773   7.947   3.280   9.932 -0.1046  0.4199  0.2010
20111SOL    HW161774   8.017   3.228   9.894 -1.3968 -1.7192  0.6136
20111SOL    HW261775   7.954   3.365   9.888  3.1026  0.5458  0.7054
20112SOL     OW61776   4.442   2.767  11.168  0.2025 -0.1955  0.4485
20112SOL    HW161777   4.349   2.747  11.163 -0.1655  1.6112 -1.9590
20112SOL    HW261778   4.447   2.848  11.218  0.3105  0.3618 -0.4358
20113SOL     OW61779   6.969   0.725   9.468 -0.0666 -0.3683 -0.1817
20113SOL    HW161780   7.016   0.654   9.424 -0.2091 -0.7652  0.2921
20113SOL    HW261781   6.977   0.704   9.561  2.2228  1.6405  0.1967
20114SOL     OW61782   5.573   2.119  10.330  0.0340 -0.5255 -0.6544
20114SOL    HW161783   5.570   2.198  10.277  0.9064 -0.9374 -1.3491
20114SOL    HW261784   5.505   2.062  10.293  0.5314 -0.7479 -1.2439
20115SOL     OW61785   6.084   1.993   9.891 -0.2915 -0.0611 -0.0480
20115SOL    HW161786   6.151   1.949   9.943  0.7219 -1.9230 -2.6756
20115SOL    HW261787   6.080   2.082   9.926 -0.0937 -1.2878  3.4304
20116SOL     OW61788   7.041   1.708  10.161  0.2310 -0.1116 -0.3290
20116SOL    HW161789   6.978   1.674  10.097 -0.2620 -0.6822  0.4240
20116SOL    HW261790   6.988   1.762  10.220  1.0456  2.2057 -1.6229
20117SOL     OW61791   0.162   0.870  10.702  0.3173 -0.2737 -1.2789
20117SOL    HW161792   0.248   0.908  10.719  0.0930 -0.6686  1.0079
20117SOL    HW261793   0.107   0.945  10.682  0.6334  0.2733 -0.1803
20118SOL     OW61794   7.501   2.613  10.950  0.7661  0.7546  0.5371
20118SOL    HW161795   7.501   2.540  11.011 -1.0328  0.2355 -0.0396
20118SOL    HW261796   7.538   2.577  10.869 -1.6712 -0.0918 -0.2994
20119SOL     OW61797   4.695   3.502  10.820  0.8970 -0.5516  0.5454
20119SOL    HW161798   4.781   3.463  10.831  0.5637 -1.5892 -0.3766
20119SOL    HW261799   4.686   3.514  10.726  2.1330  4.5005  0.7791
20120SOL     OW61800   7.124   2.838  10.682 -0.3647  0.2039 -0.1228
20120SOL    HW161801   7.038   2.832  10.724 -0.5357  0.3855 -0.4403
20120SOL    HW261802   7.178   2.775  10.729 -0.8187 -0.3006 -0.2609
20121SOL     OW61803   5.353   3.835  10.524 -0.6115  0.0134  0.4579
20121SOL    HW161804   5.417   3.905  10.538  1.2621 -0.5708 -3.5813
20121SOL    HW261805   5.288   3.874  10.464 -0.7149 -1.0501 -0.1496
20122SOL     OW61806   7.380   1.803  10.453  0.2997 -0.5107  0.0025
20122SOL    HW161807   7.320   1.798  10.379  0.3831 -0.1089 -0.0949
20122SOL    HW261808   7.451   1.860  10.422  0.7325 -0.9767  0.1147
20123SOL     OW61809   6.075   1.545  11.900  0.0114  0.2998 -0.2317
20123SOL    HW161810   6.152   1.488  11.897 -0.6536 -0.7573  1.4800
20123SOL    HW261811   6.005   1.493  11.860 -0.6008 -0.1565  1.3422
20124SOL     OW61812   5.703   3.665   9.373 -0.3874  0.6518  0.4116
20124SOL    HW161813   5.781   3.684   9.424  2.2239  0.1342 -3.0103
20124SOL    HW261814   5.712   3.573   9.347 -0.6121  1.2761 -2.2244
20125SOL     OW61815   7.157   3.605   9.811 -0.1723  0.3224 -0.0197
20125SOL    HW161816   7.250   3.590   9.791  0.0706 -1.8242  2.1977
20125SOL    HW261817   7.110   3.565   9.737  0.6778 -0.5018 -0.1392
20126SOL     OW61818   5.961   6.160  10.829  0.0396 -0.0971 -0.1978
20126SOL    HW161819   6.002   6.235  10.870 -0.5007  0.8427 -1.3122
20126SOL    HW261820   5.870   6.162  10.861  0.1934 -0.6694  0.2850
20127SOL     OW61821   0.984   2.857  10.582 -0.1910  0.0820  0.0440
20127SOL    HW161822   0.998   2.849  10.677 -1.5374 -0.2220  0.2275
20127SOL    HW261823   0.890   2.845  10.570 -0.0507  0.2165 -1.3317
20128SOL     OW61824   7.355   3.898  10.490  0.2478 -0.4545  0.0380
20128SOL    HW161825   7.339   3.803  10.492 -0.8788 -0.2754  0.4837
20128SOL    HW261826   7.267   3.937  10.487  0.6388  0.5935  1.2874
20129SOL     OW61827   5.091   2.048  10.196 -0.0690  0.1320 -0.1770
20129SOL    HW161828   5.105   2.133  10.152  0.2500 -0.0905 -0.5184
20129SOL    HW261829   5.180   2.016  10.213 -0.1136  1.2871  2.8042
20130SOL     OW61830   7.148   1.688   9.534  0.4697  0.0238  0.4694
20130SOL    HW161831   7.137   1.609   9.587 -2.3443 -0.3455 -0.4839
20130SOL    HW261832   7.140   1.657   9.444  0.6266  1.2405  0.0213
20131SOL     OW61833   4.241   6.177  11.892  0.2049 -0.0242  0.1234
20131SOL    HW161834   4.162   6.124  11.901 -0.3284  0.8830  0.8642
20131SOL    HW261835   4.219   6.242  11.825  1.6064 -2.0418 -2.5010
20132SOL     OW61836   7.608   3.536   8.952 -0.5897 -0.2544 -0.2795
20132SOL    HW161837   7.618   3.614   8.896  0.6621 -0.5975 -0.5774
20132SOL    HW261838   7.577   3.468   8.892 -0.4732 -0.2963 -0.2932
20133SOL     OW61839   6.693   2.021  10.559  0.0101  0.1623 -0.1107
20133SOL    HW161840   6.726   1.950  10.614  1.6191 -0.0516 -1.2645
20133SOL    HW261841   6.741   2.098  10.588 -1.0907  0.6205  0.5452
20134SOL     OW61842   7.514   2.760   9.545 -0.6027 -0.2296 -0.5413
20134SOL    HW161843   7.479   2.823   9.608  0.0182 -1.7331  1.4034
20134SOL    HW261844   7.564   2.698   9.598  0.1683 -1.4421 -2.5656
20135SOL     OW61845   6.761   4.634  10.530 -0.4175  0.1253 -0.4734
20135SOL    HW161846   6.851   4.668  10.532  0.1457 -1.2227 -1.6164
20135SOL    HW261847   6.716   4.683  10.599  0.6192  2.3848 -1.3015
20136SOL     OW61848   7.278   2.220   9.248  0.1972 -0.2405 -0.4093
20136SOL    HW161849   7.332   2.187   9.320  1.6157  1.9041 -0.3821
20136SOL    HW261850   7.218   2.148   9.228  1.6393 -1.9571  1.0154
20137SOL     OW61851   4.959   2.391  12.019  0.3329 -0.1397  0.0575
20137SOL    HW161852   4.866   2.397  12.039  0.0373 -1.4885 -0.7264
20137SOL    HW261853   4.962   2.369  11.926  1.4323 -0.2500  0.1025
20138SOL     OW61854   5.742   5.251   9.627  0.0978  0.2543  0.2928
20138SOL    HW161855   5.798   5.327   9.609  0.7269 -0.2421  0.1219
20138SOL    HW261856   5.657   5.289   9.649  0.7392  1.0681  1.4959
20139SOL     OW61857   6.827   1.895   9.591 -0.0973 -0.1121 -0.1353
20139SOL    HW161858   6.886   1.894   9.666 -0.8919  1.0950  0.5294
20139SOL    HW261859   6.761   1.828   9.610 -1.0468  1.0668  0.8982
20140SOL     OW61860   6.382   2.408   9.829 -0.6193 -0.4828  0.6287
20140SOL    HW161861   6.429   2.381   9.751  0.2909  0.0662  0.9743
20140SOL    HW261862   6.309   2.346   9.836 -0.8600 -0.3836 -0.7754
20141SOL     OW61863   5.321   3.218  11.552  0.1221  0.5373 -0.0414
20141SOL    HW161864   5.388   3.209  11.619 -0.4942  0.3796  0.5573
20141SOL    HW261865   5.282   3.131  11.544 -0.5486  0.8081  0.1833
20142SOL     OW61866   6.984   2.593  10.306 -0.2059 -0.2653  0.6877
20142SOL    HW161867   7.023   2.675  10.336 -0.1010  0.7566 -1.9880
20142SOL    HW261868   6.978   2.602  10.211 -1.4183 -2.8490  0.4220
20143SOL     OW61869   6.852   2.042  10.177  0.1510 -0.4207 -0.1320
20143SOL    HW161870   6.832   2.132  10.205  1.7240 -0.6966  2.2041
20143SOL    HW261871   6.791   2.025  10.106 -3.3036  0.9713  2.2059
20144SOL     OW61872   5.622   3.481  10.967 -0.3625 -0.1515  0.1888
20144SOL    HW161873   5.612   3.426  11.045  0.6952 -1.1423 -0.3365
20144SOL    HW261874   5.592   3.425  10.895  0.3314  0.0969 -0.3027
20145SOL     OW61875   5.360   3.676  12.046 -0.0919  0.4969  0.0578
20145SOL    HW161876   5.385   3.750  12.101  0.7133 -0.2233  0.6781
20145SOL    HW261877   5.385   3.599  12.096  0.9347 -0.1753 -1.4395
20146SOL     OW61878   0.404   2.424  10.488 -0.2020  0.5351 -0.3585
20146SOL    HW161879   0.378   2.373  10.564 -0.4239  1.0651 -0.0748
20146SOL    HW261880   0.499   2.436  10.497 -0.4264  1.8328  0.6189
20147SOL     OW61881   6.336   2.346  10.957 -0.2167 -0.0484  0.1930
20147SOL    HW161882   6.321   2.271  10.900 -0.7683  0.6514 -0.6036
20147SOL    HW261883   6.249   2.369  10.990 -0.4209  1.5339 -1.2587
20148SOL     OW61884   6.594   3.899   9.858 -0.7821  0.3041 -0.6076
20148SOL    HW161885   6.658   3.955   9.815  0.3750  0.0004  0.6623
20148SOL    HW261886   6.572   3.833   9.792 -0.1775  0.7075 -1.2290
20149SOL     OW61887   4.478   0.199   8.498 -0.5009  0.7453 -0.4486
20149SOL    HW161888   4.555   0.178   8.550 -0.3440  0.7998 -0.6569
20149SOL    HW261889   4.511   0.257   8.429 -0.6252  0.3158 -0.8730
20150SOL     OW61890   5.803   0.624   9.389 -0.1092 -0.7368 -0.0038
20150SOL    HW161891   5.783   0.689   9.456 -1.1174  0.0689 -1.0529
20150SOL    HW261892   5.896   0.638   9.369 -0.3466  0.4629 -0.2984
20151SOL     OW61893   5.925   2.550  10.643  0.4107 -0.1431 -0.2573
20151SOL    HW161894   5.875   2.480  10.600 -0.5778  0.4495 -0.1083
20151SOL    HW261895   6.013   2.514  10.654  1.6076  0.5933 -5.2484
20152SOL     OW61896   6.707   3.597   9.882 -0.1262  0.2195 -0.1149
20152SOL    HW161897   6.797   3.614   9.857 -0.1096  1.9757  0.9859
20152SOL    HW261898   6.700   3.629   9.972 -1.5815 -0.8394  0.2015
20153SOL     OW61899   6.782   1.180   9.047  0.2655  0.0556  0.2734
20153SOL    HW161900   6.802   1.260   9.095 -0.7283  0.8413 -0.5572
20153SOL    HW261901   6.688   1.168   9.058  0.1462 -0.1561 -0.8464
20154SOL     OW61902   6.320   3.087   9.534  0.6688  0.0901  0.3548
20154SOL    HW161903   6.312   2.993   9.551 -1.0018 -0.3100 -2.1520
20154SOL    HW261904   6.253   3.106   9.468  0.0329  3.3259  1.6879
20155SOL     OW61905   6.958   1.254   8.097  0.1592 -0.0866 -0.0478
20155SOL    HW161906   6.911   1.312   8.037  3.2388  3.1562  0.3016
20155SOL    HW261907   6.908   1.259   8.179  0.5929  2.8057  0.1653
20156SOL     OW61908   6.406   1.798   9.682 -0.1361  0.6052  0.0396
20156SOL    HW161909   6.496   1.769   9.666 -0.1960 -0.0832  0.8613
20156SOL    HW261910   6.403   1.814   9.776 -0.5769  1.7069 -0.1488
20157SOL     OW61911   6.500   0.421  11.243  0.5395  0.0989  0.4488
20157SOL    HW161912   6.568   0.422  11.176  0.2265  0.3987  0.1309
20157SOL    HW261913   6.472   0.330  11.248  1.6364 -0.2077  1.2705
20158SOL     OW61914   7.409   1.676   9.789 -0.2907  0.1695  0.1846
20158SOL    HW161915   7.425   1.607   9.725  1.3765  0.3621  0.3412
20158SOL    HW261916   7.356   1.740   9.742  0.6866  0.1866 -0.9622
20159SOL     OW61917   5.384   3.387   9.769  0.2670 -0.1825  0.2574
20159SOL    HW161918   5.319   3.341   9.717 -0.4603  0.4168  0.6266
20159SOL    HW261919   5.373   3.479   9.745  0.8152 -0.0505  0.4986
20160SOL     OW61920   7.335   2.873   9.782 -0.3199 -0.2921 -0.1242
20160SOL    HW161921   7.273   2.925   9.832  1.2444  0.5616  1.0151
20160SOL    HW261922   7.317   2.782   9.808 -1.4519 -0.1232 -0.2659
20161SOL     OW61923   7.871   1.508   9.751  0.7540  0.1380  0.4081
20161SOL    HW161924   7.807   1.525   9.820  0.1663  0.1624 -0.1354
20161SOL    HW261925   7.846   1.423   9.714  1.3554 -0.1027  0.5438
20162SOL     OW61926   7.421   2.074   9.465 -0.5731  0.0857  0.0978
20162SOL    HW161927   7.331   2.054   9.492 -0.9334  2.2590  0.7317
20162SOL    HW261928   7.461   1.989   9.450 -2.6278 -0.9552  0.1531
20163SOL     OW61929   6.118   3.122   8.111 -0.0398  1.2851  0.3495
20163SOL    HW161930   6.059   3.163   8.048  1.1065  0.5711 -1.2538
20163SOL    HW261931   6.099   3.029   8.104  1.0216  1.0851  0.0889
20164SOL     OW61932   7.048   4.500   7.549 -0.2768 -0.7031  0.5454
20164SOL    HW161933   6.961   4.531   7.575 -0.5230 -1.9445  1.3151
20164SOL    HW261934   7.034   4.409   7.524  0.1603  0.0854 -3.0730
20165SOL     OW61935   0.436   2.269  10.827  0.4615 -0.1662 -0.1194
20165SOL    HW161936   0.448   2.341  10.889 -1.1501  0.4191 -0.4381
20165SOL    HW261937   0.517   2.219  10.832 -0.1276 -1.0997  3.6755
20166SOL     OW61938   6.640   3.400   9.724 -0.2297 -0.7507 -0.1738
20166SOL    HW161939   6.661   3.466   9.790 -0.9142 -0.5120 -0.1871
20166SOL    HW261940   6.556   3.427   9.689  0.4804 -0.4548 -1.6910
20167SOL     OW61941   6.279   2.648  10.782  0.2599 -0.2786  0.4454
20167SOL    HW161942   6.326   2.569  10.810  1.3277 -0.1965 -1.0083
20167SOL    HW261943   6.258   2.694  10.863  1.0018 -1.2887  1.2322
20168SOL     OW61944   6.787   2.865  10.417 -0.3034  0.2435 -0.1911
20168SOL    HW161945   6.725   2.927  10.378  1.1265  0.9312 -1.5335
20168SOL    HW261946   6.762   2.780  10.381 -1.8460  0.1205  1.0969
20169SOL     OW61947   7.350   3.547  10.041  0.2883  0.6296 -0.1545
20169SOL    HW161948   7.376   3.621   9.987 -0.2247  0.6460 -0.3856
20169SOL    HW261949   7.257   3.561  10.057 -0.2298 -0.8459 -1.6172
20170SOL     OW61950   5.273   1.989  10.536  0.3832 -0.4366  0.0333
20170SOL    HW161951   5.196   2.025  10.493  1.1109 -0.0590 -0.9872
20170SOL    HW261952   5.339   2.058  10.530  0.6613 -0.5647  1.3350
20171SOL     OW61953   0.116   1.657  10.058 -0.7332  1.3073 -0.3175
20171SOL    HW161954   0.030   1.629  10.089 -0.1192 -1.1164 -0.5728
20171SOL    HW261955   0.101   1.683   9.967 -1.2492  1.0815 -0.3014
20172SOL     OW61956   7.507   1.075  10.010 -0.8798  0.3912  0.2205
20172SOL    HW161957   7.495   1.017  10.085 -1.5153  0.1861 -0.0359
20172SOL    HW261958   7.542   1.156  10.048  1.6309 -0.6805  0.4013
20173SOL     OW61959   6.618   3.241  10.520  0.2962 -0.9275  0.4013
20173SOL    HW161960   6.615   3.266  10.613  0.2079  1.4422 -0.1650
20173SOL    HW261961   6.694   3.287  10.485 -1.3561  0.7587 -1.2808
20174SOL     OW61962   6.129   2.802   9.875  0.0902  0.0110 -0.6638
20174SOL    HW161963   6.146   2.730   9.813  0.6794  0.7246 -1.3429
20174SOL    HW261964   6.198   2.794   9.940  0.5635  0.3782 -1.1197
20175SOL     OW61965   5.616   3.129  11.379  0.1533  0.2337  0.0611
20175SOL    HW161966   5.553   3.069  11.341  0.0115 -0.0766  0.7698
20175SOL    HW261967   5.659   3.170  11.304 -0.5621  0.1063 -0.4250
20176SOL     OW61968   7.557   1.571  11.845  0.1869  0.2628  0.6807
20176SOL    HW161969   7.643   1.601  11.814 -0.2185  0.0114 -0.7308
20176SOL    HW261970   7.498   1.643  11.824 -0.1192  0.0440  0.7893
20177SOL     OW61971   6.472   5.034  10.950  0.5048  0.4878 -0.0935
20177SOL    HW161972   6.485   5.126  10.929  0.5647  0.2042 -1.3765
20177SOL    HW261973   6.408   5.003  10.887  0.3315 -0.3117  0.4524
20178SOL     OW61974   7.793   2.758   8.840 -0.0628 -0.5340 -0.2556
20178SOL    HW161975   7.794   2.773   8.745 -1.0212  1.5845  0.0311
20178SOL    HW261976   7.775   2.664   8.848 -0.2717 -0.7059 -2.1602
20179SOL     OW61977   7.389   2.274  10.157 -0.3218 -0.3409  0.3128
20179SOL    HW161978   7.469   2.274  10.209 -0.4226  0.8879  0.4947
20179SOL    HW261979   7.344   2.194  10.183  1.4853 -1.8095 -0.8367
20180SOL     OW61980   6.298   2.951  10.741 -0.2947  0.0432 -0.5853
20180SOL    HW161981   6.231   2.981  10.680 -0.8395 -1.1186 -0.5998
20180SOL    HW261982   6.258   2.959  10.827 -1.7869 -3.5721 -0.7547
20181SOL     OW61983   6.689   2.566  10.088 -0.0641 -0.0835  0.0243
20181SOL    HW161984   6.604   2.539  10.123  0.7834 -2.4483  0.4146
20181SOL    HW261985   6.687   2.662  10.091 -2.2729 -0.1070  1.0438
20182SOL     OW61986   0.442   2.751   7.809  0.1103 -0.3095 -0.5847
20182SOL    HW161987   0.448   2.671   7.755 -1.8315  0.5275 -2.1469
20182SOL    HW261988   0.367   2.735   7.867 -0.4001  0.4486 -1.0340
20183SOL     OW61989   5.109   2.843  10.680  0.1420  0.6653 -0.2822
20183SOL    HW161990   5.199   2.848  10.711 -0.3221  0.2505  1.2021
20183SOL    HW261991   5.117   2.830  10.585  1.7113 -1.8547  0.0997
20184SOL     OW61992   7.382   3.429  10.557 -0.3974  0.3078 -0.4607
20184SOL    HW161993   7.380   3.383  10.641 -0.2447  0.4149 -0.3986
20184SOL    HW261994   7.360   3.361  10.493  1.4139 -0.2470 -0.5500
20185SOL     OW61995   0.623   1.173  11.726  0.0024 -0.0398  0.0445
20185SOL    HW161996   0.567   1.174  11.648  0.7224  1.8020 -0.4900
20185SOL    HW261997   0.563   1.183  11.799 -0.5002  0.3885 -0.4200
20186SOL     OW61998   6.582   1.136  10.964 -0.5248 -0.3285 -0.1120
20186SOL    HW161999   6.537   1.147  11.048  0.7296 -0.4194  0.5887
20186SOL    HW262000   6.511   1.133  10.900 -1.5521 -0.9349  1.0042
20187SOL     OW62001   6.553   2.343  10.266 -0.2097  0.4391  0.3131
20187SOL    HW162002   6.649   2.345  10.268 -0.1985  0.4043 -0.0759
20187SOL    HW262003   6.527   2.370  10.354  0.1765 -0.9957  0.8966
20188SOL     OW62004   5.491   2.137   9.316  0.3888  0.2247 -0.2707
20188SOL    HW162005   5.476   2.183   9.234 -4.2159  0.1763  0.2657
20188SOL    HW262006   5.518   2.205   9.378  0.1101  0.9749 -0.9628
20189SOL     OW62007   5.340   3.056   9.187  0.8917 -0.2036 -0.5172
20189SOL    HW162008   5.314   3.087   9.100  1.1623  0.4063 -0.3914
20189SOL    HW262009   5.258   3.043   9.234  0.7556 -0.1746 -0.7461
20190SOL     OW62010   7.364   2.592  10.611 -0.3259  0.1321 -0.4227
20190SOL    HW162011   7.373   2.514  10.557 -1.9611 -1.5466  1.5757
20190SOL    HW262012   7.285   2.577  10.662 -0.3361  2.8308  0.5071
20191SOL     OW62013   5.906   4.698  10.670 -0.3313  0.1913 -0.1454
20191SOL    HW162014   5.890   4.792  10.683  2.1578  0.7108 -0.2567
20191SOL    HW262015   5.929   4.665  10.756  1.3348  0.3019 -0.5097
20192SOL     OW62016   6.172   2.267  11.666 -0.2063  0.0703 -0.1201
20192SOL    HW162017   6.176   2.310  11.580 -1.3407  0.2949 -0.0788
20192SOL    HW262018   6.264   2.251  11.689  0.0889 -1.8299 -2.2815
20193SOL     OW62019   6.742   4.491  11.091  0.1778 -0.3018  0.3324
20193SOL    HW162020   6.775   4.578  11.111 -0.8642 -0.1468  1.4559
20193SOL    HW262021   6.784   4.434  11.155  0.8582 -0.6548 -0.3996
20194SOL     OW62022   6.336   1.063  10.070  0.5139 -0.1756  0.4977
20194SOL    HW162023   6.414   1.080  10.122  0.3953 -0.5315  0.8010
20194SOL    HW262024   6.300   0.982  10.107  1.5171 -1.5660 -1.4127
20195SOL     OW62025   7.050   2.878  11.615  0.1490  0.6096  0.5850
20195SOL    HW162026   7.026   2.862  11.524  1.0082  1.2445  0.2300
20195SOL    HW262027   7.069   2.971  11.619  3.0028  0.1125  0.6771
20196SOL     OW62028   6.456   2.111   9.724 -0.0449 -0.1733  0.1975
20196SOL    HW162029   6.380   2.086   9.671  0.2301  1.1597 -0.8819
20196SOL    HW262030   6.443   2.065   9.807 -0.9354 -1.6318 -0.7016
20197SOL     OW62031   7.129   2.545  10.793  0.3128  0.1844  0.0203
20197SOL    HW162032   7.076   2.467  10.778  2.7066 -1.2028 -1.9834
20197SOL    HW262033   7.082   2.593  10.862 -2.5485 -1.7331 -0.4189
20198SOL     OW62034   7.429   2.051   0.057 -0.0134 -0.2904 -0.5766
20198SOL    HW162035   7.399   2.073   0.146 -1.8257  0.6295 -1.3565
20198SOL    HW262036   7.500   1.988   0.071  0.0569  0.1652  1.5311
20199SOL     OW62037   6.481   1.475  10.908  0.3750  0.1275  0.0467
20199SOL    HW162038   6.498   1.501  10.998 -0.0277  0.1826  0.1071
20199SOL    HW262039   6.397   1.430  10.911  0.6682 -0.4450 -0.1981
20200SOL     OW62040   7.635   2.222  10.271  0.3445 -0.2131  0.1190
20200SOL    HW162041   7.669   2.141  10.308  3.0326  1.2928  1.2171
20200SOL    HW262042   7.694   2.243  10.199 -0.9713  0.2542 -0.8785
20201SOL     OW62043   7.208   1.210  11.381  0.2252 -0.6919 -0.1728
20201SOL    HW162044   7.299   1.237  11.366  0.4467 -1.8175 -0.9858
20201SOL    HW262045   7.202   1.196  11.475  0.7910 -0.2765 -0.0669
20202SOL     OW62046   6.624   2.002  10.937  0.4508  0.2418  0.5107
20202SOL    HW162047   6.655   2.092  10.925 -0.2765  0.6211  1.4351
20202SOL    HW262048   6.577   2.003  11.020  1.7518 -1.3536  1.3367
20203SOL     OW62049   6.421   1.992   9.995 -0.3890  0.6267 -0.4139
20203SOL    HW162050   6.507   1.949   9.998 -0.2576  0.7491 -1.8245
20203SOL    HW262051   6.368   1.943  10.058  0.2473 -0.5136 -0.7303
20204SOL     OW62052   6.362   2.121  10.794 -0.6589  0.2138  0.1680
20204SOL    HW162053   6.434   2.083  10.844 -0.7450 -0.1935 -0.0173
20204SOL    HW262054   6.339   2.054  10.730 -0.2207  0.9270 -0.7586
20205SOL     OW62055   7.605   2.501  10.704  0.6514  0.0745  1.1551
20205SOL    HW162056   7.661   2.499  10.627  1.8958  0.6711  2.0146
20205SOL    HW262057   7.531   2.557  10.679  0.2038 -1.0531 -0.1244
20206SOL     OW62058   6.495   2.693   9.588 -0.5256  0.1551  0.2164
20206SOL    HW162059   6.459   2.775   9.555 -0.0431  0.0552 -0.5609
20206SOL    HW262060   6.429   2.662   9.651 -0.4681  1.3869  0.9034
20207SOL     OW62061   6.141   2.387  10.693 -0.4269  0.1917  0.0544
20207SOL    HW162062   6.185   2.464  10.728  0.2747 -0.5666  0.9006
20207SOL    HW262063   6.212   2.330  10.663 -0.9567  0.1667 -1.2424
20208SOL     OW62064   5.431   4.076  11.739 -0.2155  0.4245  0.2081
20208SOL    HW162065   5.412   4.159  11.781  1.8627  2.0125 -1.7525
20208SOL    HW262066   5.515   4.049  11.777 -1.4111 -1.4993  1.7084
20209SOL     OW62067   6.448   4.641  10.105 -0.0135 -0.3351 -0.0882
20209SOL    HW162068   6.428   4.550  10.083  2.7788 -0.6673 -1.6665
20209SOL    HW262069   6.510   4.636  10.177  1.6243  0.1581 -1.3981
20210SOL     OW62070   5.576   2.218  12.136  0.5217  1.0254  0.3004
20210SOL    HW162071   5.662   2.223  12.177 -0.6084  0.1947  2.9897
20210SOL    HW262072   5.571   2.130  12.100  0.4849  0.7860  0.8929
20211SOL     OW62073   6.350   1.160  10.769 -0.1407  0.5352 -0.0674
20211SOL    HW162074   6.314   1.074  10.791  2.1621  0.0537  2.2827
20211SOL    HW262075   6.299   1.221  10.822 -0.4294  0.3862 -0.1692
20212SOL     OW62076   6.901   1.118  10.454  0.0238  0.2274 -0.0484
20212SOL    HW162077   6.921   1.194  10.399  2.3228 -0.7931 -0.7427
20212SOL    HW262078   6.987   1.085  10.481 -0.9868 -0.8012  2.1272
20213SOL     OW62079   6.028   0.766  11.127 -0.0116 -0.4895 -0.0697
20213SOL    HW162080   5.940   0.727  11.122 -0.3064  0.2083 -0.3447
20213SOL    HW262081   6.038   0.815  11.046  1.6394 -2.5992 -1.2539
20214SOL     OW62082   6.993   1.603   8.519  0.5812 -0.4549  0.2599
20214SOL    HW162083   7.015   1.512   8.537 -0.5259 -0.5745  1.1501
20214SOL    HW262084   6.995   1.646   8.605 -1.7560 -0.3265  0.3370
20215SOL     OW62085   6.956   2.309   9.989  0.1393 -0.3633 -0.2884
20215SOL    HW162086   6.977   2.271   9.904  0.2461 -1.8838  0.3915
20215SOL    HW262087   6.952   2.403   9.973  1.6878 -0.4976 -1.6530
20216SOL     OW62088   6.283   2.724  11.549 -0.0722  0.1340 -0.2110
20216SOL    HW162089   6.197   2.722  11.592 -0.3310 -1.3726 -0.7165
20216SOL    HW262090   6.298   2.816  11.529 -0.1963  0.8517  2.5351
20217SOL     OW62091   6.213   2.610   9.192  0.6375 -0.1896 -0.1082
20217SOL    HW162092   6.247   2.603   9.280 -1.5033 -0.5860  0.7631
20217SOL    HW262093   6.160   2.531   9.180  1.2852 -0.3972 -1.9403
20218SOL     OW62094   7.377   3.978   9.576  0.3376  0.3064 -0.7908
20218SOL    HW162095   7.443   3.962   9.643  0.7071  0.3033 -1.1513
20218SOL    HW262096   7.364   3.893   9.534 -1.0325 -0.0524  0.2894
20219SOL     OW62097   5.263   1.279   9.981  0.1408 -0.3454  0.5003
20219SOL    HW162098   5.310   1.218   9.924 -0.1132  0.4673 -0.6337
20219SOL    HW262099   5.300   1.365   9.958 -1.2353  0.2057  0.2532
20220SOL     OW62100   5.676   4.380  11.676  0.0595 -0.0683  0.2808
20220SOL    HW162101   5.707   4.291  11.665 -1.4959 -0.5942 -0.1753
20220SOL    HW262102   5.751   4.435  11.654  1.1841 -1.2405  1.0132
20221SOL     OW62103   5.772   2.893   9.997 -0.1153 -0.1911  0.3472
20221SOL    HW162104   5.737   2.915   9.910  1.0127  0.8524  0.1432
20221SOL    HW262105   5.845   2.953  10.010  1.7885 -2.4435  0.6749
20222SOL     OW62106   6.542   1.691   9.436 -0.4669  0.4129  0.2109
20222SOL    HW162107   6.498   1.775   9.422 -1.4409  0.0034  0.6945
20222SOL    HW262108   6.498   1.654   9.513 -0.6202 -0.9008 -0.4770
20223SOL     OW62109   7.610   1.131  11.673 -0.3730 -0.4829  0.5035
20223SOL    HW162110   7.538   1.102  11.730 -0.0968  0.6282  1.4563
20223SOL    HW262111   7.634   1.216  11.708  0.8881 -0.4932 -0.3127
20224SOL     OW62112   6.957   2.317   9.676  0.2697  0.0254 -0.4110
20224SOL    HW162113   6.943   2.410   9.689  0.4118 -0.0611  0.3674
20224SOL    HW262114   6.871   2.277   9.690 -0.3646  0.2499 -3.0730
20225SOL     OW62115   7.446   2.326  10.470 -0.0020 -0.0577  0.1227
20225SOL    HW162116   7.524   2.339  10.416  0.7744  0.8533  1.4362
20225SOL    HW262117   7.466   2.249  10.523  0.2327  0.5036  0.8533
20226SOL     OW62118   6.447   2.334  10.558  0.2633 -0.1776 -0.4121
20226SOL    HW162119   6.373   2.294  10.513  1.2324 -2.0023 -0.4786
20226SOL    HW262120   6.488   2.262  10.606  0.9469  1.1483  1.0875
20227SOL     OW62121   6.861   0.737  10.525  0.1266 -0.2490  0.2889
20227SOL    HW162122   6.918   0.788  10.468  0.0735  0.5442  0.9142
20227SOL    HW262123   6.865   0.783  10.609  0.9167 -1.9092  1.1938
20228SOL     OW62124   0.056   3.388   9.285  0.6658 -0.0338  0.5947
20228SOL    HW162125   0.121   3.398   9.216  1.3758 -1.5051  1.0206
20228SOL    HW262126   0.063   3.469   9.336  0.4492  0.8707 -0.7522
20229SOL     OW62127   4.997   4.791   0.391 -0.4348 -0.5021 -0.2657
20229SOL    HW162128   5.034   4.790   0.480 -0.1730 -3.3283 -0.3237
20229SOL    HW262129   5.071   4.770   0.334 -0.5683  1.4416 -1.2436
20230SOL     OW62130   7.643   4.065   8.547  0.2829 -0.1958 -0.3736
20230SOL    HW162131   7.570   4.005   8.534  0.0415 -0.1658  0.7727
20230SOL    HW262132   7.610   4.150   8.518 -0.0837 -0.2162 -0.0240
20231SOL     OW62133   6.410   4.484  10.705 -0.3897  0.3539 -0.3793
20231SOL    HW162134   6.492   4.533  10.710  0.0623 -0.3974 -0.2484
20231SOL    HW262135   6.368   4.516  10.625  1.0633 -0.7879 -1.6628
20232SOL     OW62136   5.652   3.432  10.506 -0.3000  0.3845 -0.3621
20232SOL    HW162137   5.660   3.369  10.434  2.6208  0.5560 -0.3401
20232SOL    HW262138   5.631   3.380  10.583 -0.5773 -0.2070 -0.8355
20233SOL     OW62139   6.064   3.859  10.505  0.3108  0.0877  0.1193
20233SOL    HW162140   6.029   3.944  10.534 -0.1408 -0.4026  1.0694
20233SOL    HW262141   6.159   3.869  10.511  0.2595  0.5121  0.2627
20234SOL     OW62142   6.619   0.829   9.573  0.2226 -0.1613 -0.0021
20234SOL    HW162143   6.547   0.859   9.518 -2.1929 -0.7140  2.5757
20234SOL    HW262144   6.654   0.909   9.613  0.3288  0.0250 -0.4672
20235SOL     OW62145   6.486   2.596  11.445 -0.6587  0.3369 -0.0900
20235SOL    HW162146   6.507   2.653  11.371  0.5064  1.6542  1.1853
20235SOL    HW262147   6.422   2.645  11.496 -2.6434 -1.2156 -0.9526
20236SOL     OW62148   5.185   4.417   8.477 -0.2897  0.1548 -0.3091
20236SOL    HW162149   5.176   4.401   8.383 -0.0411  3.0777 -0.9326
20236SOL    HW262150   5.099   4.394   8.514  0.5699 -4.2501 -0.5487
20237SOL     OW62151   7.838   2.411   9.668 -0.2043 -0.1392  0.0555
20237SOL    HW162152   7.916   2.432   9.618  0.1042 -0.6294  0.3109
20237SOL    HW262153   7.797   2.338   9.620  0.1050 -0.6243  0.5124
20238SOL     OW62154   0.212   2.223  10.693  0.3410 -0.3635  0.3471
20238SOL    HW162155   0.268   2.245  10.768 -1.4259 -2.5911  2.4925
20238SOL    HW262156   0.164   2.304  10.675  3.3948  1.3254 -0.9522
20239SOL     OW62157   6.102   2.900   8.946 -0.0541 -0.0765  0.4140
20239SOL    HW162158   6.008   2.887   8.957 -0.7283  2.6332 -1.1063
20239SOL    HW262159   6.136   2.904   9.035 -1.3314 -1.2891  0.9906
20240SOL     OW62160   4.550   2.927  10.956  0.1213  0.2664  0.3865
20240SOL    HW162161   4.645   2.919  10.963  0.2186 -0.7370 -1.4983
20240SOL    HW262162   4.516   2.858  11.013  0.4648  1.1426  1.7026
20241SOL     OW62163   0.058   2.631  10.257 -0.0715  0.0823 -0.5033
20241SOL    HW162164   0.104   2.694  10.313 -1.5141 -0.3716  1.2829
20241SOL    HW262165   0.026   2.684  10.184  0.5390  1.0000 -0.1329
20242SOL     OW62166   7.801   1.679  12.044  0.2395 -0.3677 -0.0106
20242SOL    HW162167   7.801   1.624  11.965  1.3436  1.7001 -1.5447
20242SOL    HW262168   7.842   1.761  12.016  0.7065  0.4357  2.7540
20243SOL     OW62169   7.275   1.562  10.046 -0.5081  0.2352  0.3429
20243SOL    HW162170   7.337   1.620  10.001 -0.1772 -1.3911 -1.4655
20243SOL    HW262171   7.197   1.615  10.059  0.1887  1.4322 -0.1599
20244SOL     OW62172   5.604   3.253   9.846  0.0549 -0.1530 -0.2445
20244SOL    HW162173   5.548   3.177   9.828  0.9524 -0.5125 -1.6734
20244SOL    HW262174   5.544   3.328   9.843 -1.0212 -0.8254  2.1483
20245SOL     OW62175   6.871   4.138   9.896 -0.9357 -0.1384 -0.2904
20245SOL    HW162176   6.848   4.120   9.805  0.6892  1.0400 -0.9776
20245SOL    HW262177   6.818   4.214   9.920  0.6436  1.3224 -1.2183
20246SOL     OW62178   5.695   3.599  11.407  0.1988  0.2235 -0.4479
20246SOL    HW162179   5.777   3.627  11.446  0.5575 -0.3787 -0.7620
20246SOL    HW262180   5.634   3.670  11.426  0.5677  0.2901  0.5338
20247SOL     OW62181   5.023   2.791  11.600 -0.7450 -0.3778 -0.1927
20247SOL    HW162182   5.064   2.856  11.542 -2.1835 -0.3135 -1.2087
20247SOL    HW262183   5.045   2.707  11.560 -0.5306 -0.4063 -0.0122
20248SOL     OW62184   6.855   0.448  10.830  1.2229  0.3707 -0.1943
20248SOL    HW162185   6.793   0.401  10.887  0.2375  0.4758 -1.1426
20248SOL    HW262186   6.823   0.538  10.829 -0.8593 -0.2497 -3.5265
20249SOL     OW62187   4.665   2.776   9.298  0.1772  0.5823 -0.1010
20249SOL    HW162188   4.603   2.848   9.288  0.1586  0.7881  1.3164
20249SOL    HW262189   4.617   2.699   9.265 -0.9036  0.7152  1.0801
20250SOL     OW62190   6.839   2.372  12.305  0.0669 -0.1088  0.1177
20250SOL    HW162191   6.918   2.409  12.265  0.4338 -0.0588  0.8735
20250SOL    HW262192   6.776   2.367  12.233  1.1669 -1.3623 -0.8069
20251SOL     OW62193   5.158   1.742   9.838  0.5938 -0.5706  0.6750
20251SOL    HW162194   5.098   1.706   9.772 -0.1801  0.3673  0.8411
20251SOL    HW262195   5.238   1.761   9.789  0.2601 -0.4997  0.1468
20252SOL     OW62196   6.531   2.586  10.650 -0.1711  0.0201 -0.6424
20252SOL    HW162197   6.614   2.580  10.696  0.3241  1.6980 -1.2341
20252SOL    HW262198   6.515   2.498  10.616  1.3246 -0.3448 -0.4319
20253SOL     OW62199   7.288   3.284  10.335  0.0837 -0.2649  0.4977
20253SOL    HW162200   7.257   3.197  10.358 -0.6511 -0.5122 -1.2483
20253SOL    HW262201   7.331   3.273  10.250  0.8628  0.9078  0.7164
20254SOL     OW62202   7.557   2.664   9.213  0.0961  0.2035  0.1125
20254SOL    HW162203   7.651   2.648   9.212  0.2480  0.4921  2.7227
20254SOL    HW262204   7.529   2.650   9.123  2.2572 -2.1078 -0.2972
20255SOL     OW62205   4.621   0.521  12.250 -0.4093  0.4070  0.3232
20255SOL    HW162206   4.594   0.606  12.284 -1.1822  0.1288  0.4248
20255SOL    HW262207   4.669   0.480  12.323 -0.1531  0.6961  0.3195
20256SOL     OW62208   3.756   3.138  11.004 -0.5688  0.4255 -0.4450
20256SOL    HW162209   3.683   3.200  11.009 -1.1989  0.0379 -3.2922
20256SOL    HW262210   3.812   3.174  10.935  2.4834  1.1564  2.1687
20257SOL     OW62211   3.855   3.074  12.126  0.3513  0.2737  0.1270
20257SOL    HW162212   3.947   3.101  12.128  0.1472  1.0425 -0.2859
20257SOL    HW262213   3.821   3.110  12.044  0.2426 -1.9582 -0.8714
20258SOL     OW62214   7.176   2.344  10.389 -0.1302  0.3685  0.8678
20258SOL    HW162215   7.271   2.351  10.383 -0.1518  0.4594  0.6159
20258SOL    HW262216   7.144   2.432  10.370 -0.2503  0.4266  1.3209
20259SOL     OW62217   6.783   2.548  10.811  0.0577  0.3470  0.6127
20259SOL    HW162218   6.858   2.594  10.771  1.4249 -1.9611  0.3456
20259SOL    HW262219   6.780   2.581  10.901 -0.2177  2.2896 -0.0555
20260SOL     OW62220   7.630   3.871   9.204  0.3733  0.5143  0.0373
20260SOL    HW162221   7.680   3.839   9.279 -1.1492 -2.1706  0.0509
20260SOL    HW262222   7.582   3.947   9.237  1.5987  0.8671  1.0635
20261SOL     OW62223   6.715   0.517   0.538 -0.4978  0.0338  0.2099
20261SOL    HW162224   6.697   0.474   0.454 -0.4810 -0.4432  0.4475
20261SOL    HW262225   6.748   0.447   0.594  1.6033  0.7424 -0.0405
20262SOL     OW62226   7.217   3.722  10.834 -0.4982 -0.2176  0.0891
20262SOL    HW162227   7.202   3.815  10.851 -1.6810 -0.5598  1.0440
20262SOL    HW262228   7.181   3.707  10.747  0.1302  0.3029 -0.2694
20263SOL     OW62229   7.632   1.407   9.330 -0.1077 -0.6989  0.7719
20263SOL    HW162230   7.673   1.468   9.269 -0.9050  0.0829  0.9865
20263SOL    HW262231   7.701   1.345   9.353  0.7185  0.1173  0.5338
20264SOL     OW62232   5.726   1.604  10.227 -1.1890 -0.3902 -0.5300
20264SOL    HW162233   5.730   1.579  10.319 -2.0044  0.5179 -0.2462
20264SOL    HW262234   5.689   1.527  10.183 -1.3308 -0.6115 -0.0253
20265SOL     OW62235   7.003   2.242   9.401 -0.3550 -0.0068 -0.3304
20265SOL    HW162236   6.940   2.237   9.329  0.3567 -1.0739 -0.9085
20265SOL    HW262237   6.951   2.267   9.477 -1.2518  0.3792 -1.0562
20266SOL     OW62238   0.361   3.607   8.545 -0.1484 -0.0474  0.1852
20266SOL    HW162239   0.438   3.658   8.570  0.9876 -1.5919 -0.0288
20266SOL    HW262240   0.289   3.669   8.549  0.9072  1.1423  1.5956
20267SOL     OW62241   0.186   1.912   8.822  0.2717 -0.3844 -0.1005
20267SOL    HW162242   0.271   1.908   8.866 -1.2898 -2.9571  3.0695
20267SOL    HW262243   0.162   2.004   8.823  1.8928  0.0561  1.2765
20268SOL     OW62244   5.548   4.228  10.416 -0.0649  0.5525 -0.7638
20268SOL    HW162245   5.485   4.294  10.388 -1.3955 -0.7935 -1.0038
20268SOL    HW262246   5.628   4.249  10.368 -0.2539  2.3678 -0.3462
20269SOL     OW62247   5.612   2.929  10.576 -0.1970  0.0981 -0.1846
20269SOL    HW162248   5.631   2.911  10.484  0.0716  1.5296 -0.4296
20269SOL    HW262249   5.622   3.024  10.585  1.2042 -0.1680  1.6357
20270SOL     OW62250   7.135   3.690  10.582 -0.4985 -0.7274  0.0983
20270SOL    HW162251   7.091   3.753  10.525  0.3860 -0.7795 -0.6614
20270SOL    HW262252   7.136   3.609  10.531  0.0269 -0.8550  0.3081
20271SOL     OW62253   5.833   2.502   9.987 -0.0130 -0.6412  0.2069
20271SOL    HW162254   5.825   2.521  10.080 -2.5748 -0.2411 -0.0141
20271SOL    HW262255   5.875   2.416   9.983  0.1851 -0.6298  1.7238
20272SOL     OW62256   7.504   1.261   8.500 -0.1056 -0.1033  0.6491
20272SOL    HW162257   7.531   1.205   8.427 -1.9381 -1.0680  0.6330
20272SOL    HW262258   7.485   1.345   8.459 -0.4341 -0.4278  0.1142
20273SOL     OW62259   7.325   1.821  10.958 -0.0645  0.1829 -0.1772
20273SOL    HW162260   7.280   1.750  11.003  1.0528 -1.1936 -1.1427
20273SOL    HW262261   7.307   1.806  10.865  1.4512  0.2055 -0.5119
20274SOL     OW62262   4.930   2.212  10.691  0.3817  0.4276 -0.0749
20274SOL    HW162263   4.959   2.130  10.650 -0.7922 -0.0098 -0.0998
20274SOL    HW262264   4.951   2.201  10.784 -1.2445 -0.6475  0.2122
20275SOL     OW62265   5.963   2.470   9.611 -0.7267 -0.1758 -0.2649
20275SOL    HW162266   5.926   2.480   9.524  0.2151  0.4671 -0.6023
20275SOL    HW262267   5.901   2.514   9.669 -0.7020  0.5324 -0.7721
20276SOL     OW62268   6.482   1.473   9.619  0.2199  0.1480 -0.8872
20276SOL    HW162269   6.557   1.442   9.669 -0.2224 -1.0035 -0.9184
20276SOL    HW262270   6.413   1.486   9.684  0.0136 -0.1723 -1.0423
20277SOL     OW62271   0.220   2.761  10.444 -0.0287 -0.6773 -0.2477
20277SOL    HW162272   0.266   2.768  10.528 -0.0484 -2.9999  0.0176
20277SOL    HW262273   0.261   2.827  10.389 -0.0378  0.9485  1.5679
20278SOL     OW62274   6.904   3.063   9.999  0.0391 -0.0305  0.7720
20278SOL    HW162275   6.860   3.006   9.936  0.4575  0.7369 -0.2461
20278SOL    HW262276   6.838   3.128  10.023  0.0027 -0.0843  0.8196
20279SOL     OW62277   4.962   4.216   9.790  0.2808 -0.1841 -0.1885
20279SOL    HW162278   4.891   4.153   9.806 -0.9420  0.5922 -2.2282
20279SOL    HW262279   5.009   4.181   9.715  1.4813 -0.1650  0.5248
20280SOL     OW62280   6.538   2.196   9.385  0.7274  0.7675  0.2182
20280SOL    HW162281   6.481   2.122   9.405 -0.1140  1.4422  0.4022
20280SOL    HW262282   6.621   2.157   9.361  0.1684 -0.2484 -0.1118
20281SOL     OW62283   0.008   1.519  12.130 -0.3023  0.6941 -0.6332
20281SOL    HW162284  -0.060   1.581  12.103 -0.1874  0.8524 -0.5674
20281SOL    HW262285   0.027   1.543  12.221 -2.3677 -1.3399  0.4378
20282SOL     OW62286   6.709   2.249   9.747  0.0051 -0.3462 -0.2583
20282SOL    HW162287   6.708   2.263   9.842 -0.6334 -1.0830 -0.1462
20282SOL    HW262288   6.635   2.191   9.731  0.0656 -0.1674 -1.2247
20283SOL     OW62289   6.244   2.424   8.020  0.2681 -0.1592  0.4900
20283SOL    HW162290   6.249   2.396   7.929 -1.4250 -1.7935  0.8438
20283SOL    HW262291   6.240   2.343   8.070  3.6747  0.6073  2.3062
20284SOL     OW62292   6.398   2.046  11.080 -0.3462 -0.3196 -0.4728
20284SOL    HW162293   6.367   2.134  11.099  0.0138 -0.1495 -0.6674
20284SOL    HW262294   6.422   2.010  11.165  0.5590  0.1708 -0.5146
20285SOL     OW62295   5.737   1.275  11.143  0.1679 -0.0540  0.0783
20285SOL    HW162296   5.672   1.289  11.212 -2.2683  0.0062 -2.0852
20285SOL    HW262297   5.796   1.209  11.178 -1.7405 -0.9673  1.7323
20286SOL     OW62298   6.388   2.435  11.862  0.2104 -0.4223  0.1803
20286SOL    HW162299   6.386   2.348  11.822  0.5532  0.1312 -1.0744
20286SOL    HW262300   6.481   2.450  11.881  0.2634  0.0204 -0.4103
20287SOL     OW62301   4.601   1.671  12.047 -0.1360 -0.1445 -0.1304
20287SOL    HW162302   4.542   1.597  12.036  0.8097 -0.7368 -1.3906
20287SOL    HW262303   4.661   1.645  12.116 -0.5121 -0.0802  0.2240
20288SOL     OW62304   5.442   1.579  12.416  0.3292 -0.4474  0.1471
20288SOL    HW162305   5.509   1.572  12.348 -1.1588 -0.2739 -1.3862
20288SOL    HW262306   5.383   1.648  12.385 -1.8129 -2.1023  0.2912
20289SOL     OW62307   6.656   3.038  11.794 -0.1468  0.0834 -0.0957
20289SOL    HW162308   6.584   3.100  11.810 -0.5758 -0.8359  1.7472
20289SOL    HW262309   6.710   3.082  11.728 -1.3255  1.6838 -0.0698
20290SOL     OW62310   7.148   2.604  10.070 -0.4736  0.0115  0.4459
20290SOL    HW162311   7.074   2.612  10.009 -1.0088 -1.9855  0.7404
20290SOL    HW262312   7.198   2.529  10.037  0.2567  0.0426  1.4328
20291SOL     OW62313   7.976   1.265  11.327  0.5156 -0.5759  0.3623
20291SOL    HW162314   8.005   1.355  11.344 -0.5737 -0.1059 -0.1874
20291SOL    HW262315   7.981   1.256  11.232 -0.0137 -0.8627  0.3580
20292SOL     OW62316   5.176   4.723  12.030  0.3751 -0.0393 -0.2725
20292SOL    HW162317   5.095   4.688  11.992  1.2801  0.0320 -2.3848
20292SOL    HW262318   5.240   4.654  12.018  1.1134  0.6688 -0.4553
20293SOL     OW62319   6.368   1.286   0.219 -0.4407  0.7734 -0.5580
20293SOL    HW162320   6.275   1.310   0.214 -0.5176  0.7880  0.7021
20293SOL    HW262321   6.412   1.350   0.162 -1.2699  0.2343 -1.8548
20294SOL     OW62322   6.773   3.677   0.142  0.0846 -0.5778  0.3786
20294SOL    HW162323   6.803   3.752   0.194  0.4960  0.2868 -1.0665
20294SOL    HW262324   6.722   3.715   0.071 -2.1610 -1.8548  1.1952
20295SOL     OW62325   6.986   2.033  10.848  0.4636  0.6123  0.0257
20295SOL    HW162326   6.932   2.108  10.873  2.0943  2.0113 -0.3864
20295SOL    HW262327   6.940   1.957  10.882 -0.8349  1.8779  1.2352
20296SOL     OW62328   6.101   3.086  10.921 -0.8605 -0.2443 -0.1188
20296SOL    HW162329   6.093   3.141  10.999 -0.8957  1.5440 -1.3220
20296SOL    HW262330   6.018   3.037  10.918 -1.0680  0.0404  0.6871
20297SOL     OW62331   7.250   3.753   9.466  0.1823  0.7937  0.3098
20297SOL    HW162332   7.217   3.706   9.543 -1.4450 -0.2805 -0.9539
20297SOL    HW262333   7.197   3.833   9.463 -0.3724  0.4199 -0.1455
20298SOL     OW62334   6.560   3.743  11.378 -0.3801  0.1242 -0.0852
20298SOL    HW162335   6.494   3.802  11.416 -0.0348  0.8781 -0.6211
20298SOL    HW262336   6.510   3.682  11.325 -0.6500  0.7543 -0.5657
20299SOL     OW62337   7.055   2.826  10.434  0.4773 -0.5391 -0.0711
20299SOL    HW162338   7.084   2.843  10.524 -1.0303 -0.6911  0.4645
20299SOL    HW262339   6.965   2.858  10.431 -0.2033 -2.4423 -0.9269
20300SOL     OW62340   5.515   1.637   0.489  0.1660  0.0392  0.0601
20300SOL    HW162341   5.542   1.594   0.570  2.2007 -0.8628 -1.0187
20300SOL    HW262342   5.482   1.722   0.517  1.8616  0.1974  1.7795
20301SOL     OW62343   6.572   2.795  11.666  0.5225  0.4087  0.1734
20301SOL    HW162344   6.528   2.796  11.581 -1.8375 -1.0464  1.2683
20301SOL    HW262345   6.571   2.886  11.695 -0.9671  0.5625 -0.2855
20302SOL     OW62346   5.558   1.028  11.465 -0.1591  0.2723  0.0039
20302SOL    HW162347   5.479   1.020  11.412  0.2495 -1.8824 -0.3806
20302SOL    HW262348   5.619   0.965  11.427  1.1419  0.6708  1.3294
20303SOL     OW62349   6.455   3.153   0.353 -0.5910 -0.2398  0.3365
20303SOL    HW162350   6.541   3.148   0.311 -1.0376  0.2150 -0.6745
20303SOL    HW262351   6.459   3.232   0.407 -0.0666 -0.7392  1.0499
20304SOL     OW62352   6.889   2.598  11.270  0.0072  0.5475  0.1273
20304SOL    HW162353   6.944   2.645  11.208  0.6503 -1.3501 -0.8055
20304SOL    HW262354   6.947   2.581  11.345 -0.1018  0.8171  0.2772
20305SOL     OW62355   5.843   2.834  10.645 -0.1312  0.1816  0.2299
20305SOL    HW162356   5.830   2.740  10.631 -0.2778  0.1711  0.4315
20305SOL    HW262357   5.766   2.875  10.607 -2.1464 -0.0345  3.6153
20306SOL     OW62358   6.061   3.022  10.614 -0.0457  0.0804  0.1931
20306SOL    HW162359   5.999   2.951  10.631 -0.1865 -0.0116 -0.7012
20306SOL    HW262360   6.073   3.022  10.519  0.0733  1.1561  0.1991
20307SOL     OW62361   5.697   1.766   1.078  0.0710 -0.1227 -0.3624
20307SOL    HW162362   5.782   1.724   1.078 -0.8253 -2.1205  1.3057
20307SOL    HW262363   5.671   1.770   0.986  1.1889 -1.1582 -0.7438
20308SOL     OW62364   6.848   1.974  11.964  0.1738  0.2307 -0.4396
20308SOL    HW162365   6.893   2.025  11.897  1.2302 -0.9514 -0.6553
20308SOL    HW262366   6.916   1.948  12.026 -0.5594  0.1689  0.3652
20309SOL     OW62367   7.552   2.943  11.421 -0.0091 -0.0844  0.1466
20309SOL    HW162368   7.546   2.955  11.327  1.1890  0.4117  0.1228
20309SOL    HW262369   7.593   2.857  11.432 -2.4897 -1.3501  0.2733
20310SOL     OW62370   7.487   2.900  11.680 -0.0776 -0.0537 -0.2442
20310SOL    HW162371   7.488   2.911  11.585  2.2216  0.0455 -0.2695
20310SOL    HW262372   7.525   2.982  11.714  0.9412 -0.8437  0.6025
20311SOL     OW62373   5.274   4.028  11.308  0.1119  0.6684 -0.4759
20311SOL    HW162374   5.248   3.999  11.221  1.3433  0.9905 -0.9765
20311SOL    HW262375   5.370   4.034  11.303  0.4424 -1.5179  1.5591
20312SOL     OW62376   6.937   1.755  11.319 -0.6028 -0.3261  0.2880
20312SOL    HW162377   6.951   1.682  11.259  0.5946 -0.5890  0.8679
20312SOL    HW262378   7.023   1.775  11.354 -0.9558  1.1781  0.3812
20313SOL     OW62379   7.269   0.705   0.884 -0.8233 -0.2521 -0.1231
20313SOL    HW162380   7.230   0.670   0.804  0.1624  0.2187 -0.8228
20313SOL    HW262381   7.194   0.717   0.944 -1.3554 -2.3078 -0.2978
20314SOL     OW62382   6.985   3.221  10.464  0.5173  0.4889 -0.1567
20314SOL    HW162383   7.058   3.173  10.504 -0.4856 -1.4802 -0.5783
20314SOL    HW262384   6.956   3.166  10.392 -1.8119  0.8786  0.3936
20315SOL     OW62385   5.972   1.459  11.362  0.1030 -0.0782  0.6734
20315SOL    HW162386   6.021   1.398  11.308  1.0604  0.4271  0.9564
20315SOL    HW262387   6.034   1.488  11.429 -0.6141  0.4752  1.1173
20316SOL     OW62388   6.366   3.916  11.459  0.1016  0.4762 -0.3865
20316SOL    HW162389   6.276   3.911  11.491 -0.2712  1.3039 -1.2489
20316SOL    HW262390   6.369   3.998  11.410  1.9191  1.5901  1.4222
20317SOL     OW62391   6.674   0.342  11.004 -0.3662  0.4966  0.1284
20317SOL    HW162392   6.644   0.390  10.926 -0.6543  0.1744  0.0432
20317SOL    HW262393   6.614   0.269  11.013  0.9418 -0.7223 -0.6129
20318SOL     OW62394   7.133   4.037  10.453  0.1018 -0.5172  0.3077
20318SOL    HW162395   7.080   4.086  10.516  1.5308  0.6554  0.6594
20318SOL    HW262396   7.079   3.962  10.429 -2.7403  1.7723 -1.1609
20319SOL     OW62397   6.453   3.550  10.804 -0.0664  0.0798 -0.4420
20319SOL    HW162398   6.376   3.595  10.838  0.2238  0.2412  0.0144
20319SOL    HW262399   6.454   3.466  10.851 -0.1224 -0.0420 -0.6566
20320SOL     OW62400   5.606   4.033  11.526 -0.3325  0.1106 -0.0935
20320SOL    HW162401   5.644   4.113  11.488 -1.0981  0.8674  0.6781
20320SOL    HW262402   5.539   4.065  11.587 -0.0567 -1.0986  0.8855
20321SOL     OW62403   5.073   3.271  12.043 -0.3882  0.2597 -0.1390
20321SOL    HW162404   5.105   3.354  12.078 -0.9757  0.9329 -1.1374
20321SOL    HW262405   4.984   3.289  12.014 -0.8439 -0.9595  0.4209
20322SOL     OW62406   6.794   1.257  12.131 -0.0427  0.1774 -0.2041
20322SOL    HW162407   6.723   1.230  12.189  0.4630  1.1392  0.9109
20322SOL    HW262408   6.833   1.333  12.174  1.4365 -0.0999 -0.9737
20323SOL     OW62409   7.786   2.465  11.218 -0.2237  0.1900  0.2714
20323SOL    HW162410   7.703   2.425  11.245 -1.2183  2.1625  0.2790
20323SOL    HW262411   7.761   2.543  11.169  1.6262  1.8871  1.8803
20324SOL     OW62412   7.489   3.712  10.800 -0.3206 -0.4331  0.5338
20324SOL    HW162413   7.396   3.697  10.815 -0.2377  0.0486  1.6144
20324SOL    HW262414   7.500   3.806  10.810  0.3027 -0.4961  0.4763
20325SOL     OW62415   5.895   3.630  10.804  0.1656 -0.2144  0.0260
20325SOL    HW162416   5.855   3.699  10.751  1.0440  0.5053  0.2691
20325SOL    HW262417   5.868   3.650  10.894 -3.1178 -2.6527 -0.2342
20326SOL     OW62418   6.168   1.697  10.344  0.1439  0.1267 -0.0128
20326SOL    HW162419   6.080   1.733  10.330 -0.3311 -1.3294 -1.0008
20326SOL    HW262420   6.154   1.617  10.395  0.4644 -1.8564 -2.7693
20327SOL     OW62421   7.167   3.095   9.883 -0.1110  0.7199  0.1282
20327SOL    HW162422   7.088   3.047   9.858 -0.4715  1.4096 -0.0867
20327SOL    HW262423   7.134   3.175   9.924  0.4796  0.3740  1.3150
20328SOL     OW62424   6.519   1.745  12.260 -0.1148  0.3763 -0.6880
20328SOL    HW162425   6.461   1.803  12.211  0.9395 -0.2458 -2.8130
20328SOL    HW262426   6.483   1.658  12.247  0.4388  0.1499 -0.7444
20329SOL     OW62427   7.229   3.939   0.082  0.5442  0.1346 -0.7418
20329SOL    HW162428   7.211   3.923  -0.011 -1.4029 -2.1522 -0.0730
20329SOL    HW262429   7.286   3.867   0.108 -0.0026 -0.0070  0.1132
20330SOL     OW62430   7.354   2.616  11.448  0.5931 -0.3578  0.1463
20330SOL    HW162431   7.306   2.656  11.375  1.6634  2.3751  0.8155
20330SOL    HW262432   7.316   2.657  11.526  1.2209 -1.2724  0.9452
20331SOL     OW62433   6.615   2.023  12.269  0.3343  0.1372 -0.2218
20331SOL    HW162434   6.636   1.936  12.304  0.7064  0.2337 -0.1924
20331SOL    HW262435   6.527   2.041  12.300  0.9761  0.6051  1.4857
20332SOL     OW62436   6.134   3.151  11.197 -0.2191  0.0741 -0.3815
20332SOL    HW162437   6.079   3.229  11.196 -1.2872 -0.6491 -1.6017
20332SOL    HW262438   6.123   3.114  11.284 -0.0998  0.9918  0.0351
20333SOL     OW62439   6.428   1.132  11.197  0.2460  0.5017 -0.6945
20333SOL    HW162440   6.499   1.154  11.256  0.3449 -0.4943 -0.4195
20333SOL    HW262441   6.373   1.072  11.247 -0.8926  1.3849 -0.8407
20334SOL     OW62442   6.583   0.753  12.145  0.7131 -0.2320  0.2159
20334SOL    HW162443   6.583   0.824  12.081  0.9167 -0.3545  0.0802
20334SOL    HW262444   6.490   0.729  12.154  0.5753  0.4877  0.7557
20335SOL     OW62445   7.976   7.082  11.656 -0.3762 -0.1186  0.0555
20335SOL    HW162446   8.048   7.076  11.593  0.0938  0.0149  0.5747
20335SOL    HW262447   8.018   7.070  11.741 -1.0016 -0.2495  0.3454
20336SOL     OW62448   6.089   4.866  10.490 -0.0111 -0.5042  0.4272
20336SOL    HW162449   6.125   4.902  10.571 -1.6881  1.7534  0.2613
20336SOL    HW262450   6.017   4.810  10.519 -0.5765  0.2602  0.5073
20337SOL     OW62451   4.916   0.958  11.105  0.0997  0.2532 -0.3220
20337SOL    HW162452   4.929   0.966  11.200  1.8498  0.7886 -0.5584
20337SOL    HW262453   4.988   0.903  11.076 -0.2368  0.3647 -1.3940
20338SOL     OW62454   7.373   2.582   9.798  0.3490  0.0050  0.1926
20338SOL    HW162455   7.468   2.570   9.794  0.2102 -0.8667 -1.6437
20338SOL    HW262456   7.341   2.502   9.842  0.5786  1.4739  3.3013
20339SOL     OW62457   7.383   4.095  10.904  0.3964 -0.7741 -0.8497
20339SOL    HW162458   7.295   4.089  10.865  0.1649  1.8441 -0.8857
20339SOL    HW262459   7.443   4.085  10.830  0.0819 -0.6396 -1.1258
20340SOL     OW62460   5.533   3.827  11.377 -0.4033  0.3808  0.8396
20340SOL    HW162461   5.469   3.782  11.433 -0.0159  0.6419  1.5060
20340SOL    HW262462   5.549   3.910  11.421  0.2955  0.3751  0.6077
20341SOL     OW62463   7.002   1.970  10.579 -0.0900 -0.6637 -0.0305
20341SOL    HW162464   6.994   1.971  10.674 -0.1821 -1.5204 -0.0228
20341SOL    HW262465   7.070   2.035  10.560  0.8928 -1.4345  0.7285
20342SOL     OW62466   6.340   1.001   0.298 -0.9423 -0.2077  0.0132
20342SOL    HW162467   6.362   1.087   0.263  0.2796 -0.1383  0.8838
20342SOL    HW262468   6.245   1.001   0.305 -1.0605  0.5011 -1.4126
20343SOL     OW62469   6.618   3.047  10.283  0.2138  0.4615  0.3588
20343SOL    HW162470   6.541   3.088  10.243  0.1493 -0.6956 -0.7663
20343SOL    HW262471   6.665   3.119  10.324 -0.4013  1.5161 -0.7176
20344SOL     OW62472   6.106   1.979   0.711  0.9600 -0.1452 -0.3929
20344SOL    HW162473   6.154   1.980   0.794  0.1344 -0.2319  0.0937
20344SOL    HW262474   6.115   1.889   0.679  1.1688 -0.1446 -0.3375
20345SOL     OW62475   6.510   4.670  11.666  0.1510 -0.0572  0.1168
20345SOL    HW162476   6.585   4.661  11.726  1.5282 -0.1984 -1.5365
20345SOL    HW262477   6.460   4.743  11.702 -0.4246 -1.6072  2.7470
20346SOL     OW62478   7.116   1.101   0.102 -0.2009  0.6143 -0.4493
20346SOL    HW162479   7.065   1.164   0.049 -4.6091  0.9979  3.6226
20346SOL    HW262480   7.069   1.019   0.093  1.1535 -0.2356  0.0291
20347SOL     OW62481   7.387   0.982  12.079 -0.5442 -0.1817  0.3336
20347SOL    HW162482   7.472   0.963  12.039 -0.6791 -0.1641  0.0351
20347SOL    HW262483   7.364   0.901  12.124  0.2531  0.2429  1.5629
20348SOL     OW62484   6.333   3.743  10.334  1.0006  0.0451 -0.3661
20348SOL    HW162485   6.317   3.654  10.303 -1.0933  0.1409  0.2607
20348SOL    HW262486   6.402   3.734  10.399  0.8104 -1.1347 -0.2996
20349SOL     OW62487   0.076   3.710  10.186 -0.4840 -0.1268  0.0020
20349SOL    HW162488   0.058   3.779  10.249 -0.3713  1.4388 -1.6034
20349SOL    HW262489   0.171   3.712  10.176 -0.2157 -2.0473  1.5380
20350SOL     OW62490   6.590   1.214  11.390  0.4016 -0.6537  0.0241
20350SOL    HW162491   6.633   1.299  11.404  0.8227 -0.8143 -0.2559
20350SOL    HW262492   6.520   1.212  11.455  0.9268 -0.4548  0.6135
20351SOL     OW62493   5.214   2.809  12.121  0.0724 -0.1468 -0.3539
20351SOL    HW162494   5.204   2.854  12.036 -1.3190 -1.4772 -0.9452
20351SOL    HW262495   5.295   2.844  12.157  0.0356  1.4066 -1.6478
20352SOL     OW62496   6.235   2.696  12.238  0.0202 -0.1164  0.0418
20352SOL    HW162497   6.281   2.699  12.323  0.9964 -1.6080 -0.3947
20352SOL    HW262498   6.142   2.700  12.261  0.2327 -1.3638  1.2585
20353SOL     OW62499   0.221   2.786   0.381  0.2573 -0.4687  0.2907
20353SOL    HW162500   0.252   2.876   0.385  0.2303 -0.3781 -1.1385
20353SOL    HW262501   0.290   2.735   0.422  0.5043  0.1386  0.6482
20354SOL     OW62502   5.809   4.165  11.138  0.2502  0.3617  0.0993
20354SOL    HW162503   5.870   4.116  11.083  1.5567  0.8941  1.0177
20354SOL    HW262504   5.837   4.146  11.227  0.1121  1.9343  0.5063
20355SOL     OW62505   6.888   0.966  12.416  0.4081  0.9314  0.3501
20355SOL    HW162506   6.845   1.050  12.431 -2.5771 -0.6621  1.4720
20355SOL    HW262507   6.892   0.925  12.503  0.7094 -0.5568 -0.3340
20356SOL     OW62508   6.343   2.993  11.851 -0.0487 -0.3905  0.5740
20356SOL    HW162509   6.340   2.899  11.871  2.2081 -0.1085  2.6124
20356SOL    HW262510   6.251   3.020  11.851 -0.9145 -2.8612 -1.8249
20357SOL     OW62511   5.880   3.386  11.516 -0.3554  0.3539  0.0906
20357SOL    HW162512   5.974   3.399  11.529  0.0923 -0.7770 -1.6291
20357SOL    HW262513   5.855   3.452  11.452 -0.5080  0.0057 -0.2106
20358SOL     OW62514   5.935   2.359  11.747 -0.0690  0.4361 -0.3036
20358SOL    HW162515   6.019   2.340  11.705 -1.5092 -1.3016 -2.6558
20358SOL    HW262516   5.920   2.452  11.732  0.9629  0.5447 -0.7244
20359SOL     OW62517   6.771   4.004  10.457 -0.0962  0.2482  0.3316
20359SOL    HW162518   6.720   4.076  10.495 -2.4736 -0.6232 -0.9729
20359SOL    HW262519   6.775   4.025  10.364 -0.9736 -1.3481 -0.0941
20360SOL     OW62520   7.621   4.010   0.599  0.3327  0.5494 -0.2980
20360SOL    HW162521   7.604   4.105   0.598  0.3921  0.5635 -0.0050
20360SOL    HW262522   7.650   3.990   0.510  0.3801  0.8192 -0.3444
20361SOL     OW62523   7.952   1.763  12.315 -0.1057 -0.1049 -0.2736
20361SOL    HW162524   7.859   1.772  12.337  0.2370 -0.8756  1.7136
20361SOL    HW262525   7.979   1.850  12.287 -1.1557  0.4162  0.2736
20362SOL     OW62526   5.656   3.335  12.131 -0.4362 -0.3677 -0.7941
20362SOL    HW162527   5.697   3.364  12.212 -1.2885  0.5163 -0.6603
20362SOL    HW262528   5.714   3.367  12.061  0.2313 -1.0210 -0.5433
20363SOL     OW62529   7.776   0.935   0.664  0.1472 -0.3426 -0.0802
20363SOL    HW162530   7.815   0.988   0.595 -2.9054  0.9927 -0.9741
20363SOL    HW262531   7.696   0.900   0.624 -0.4920 -1.5096  2.0675
20364SOL     OW62532   7.705   2.994  10.983 -0.3272 -0.4920  0.0135
20364SOL    HW162533   7.631   3.015  10.927  0.6191  0.7123 -0.8305
20364SOL    HW262534   7.735   3.078  11.016  0.7072 -0.9461  0.2722
20365SOL     OW62535   7.252   2.297  11.303  0.4374 -0.5422 -0.2221
20365SOL    HW162536   7.271   2.208  11.276 -0.3194 -0.4193 -1.2271
20365SOL    HW262537   7.203   2.335  11.230  0.5293  0.6195  0.2852
20366SOL     OW62538   4.402   1.960   0.922 -0.4925  0.1669  0.4038
20366SOL    HW162539   4.453   2.018   0.866  0.5824 -0.4903  0.6899
20366SOL    HW262540   4.315   2.001   0.925 -0.5747  0.2596 -1.6544
20367SOL     OW62541   5.854   3.982   0.869  0.0843  0.0406  0.3677
20367SOL    HW162542   5.865   4.055   0.929  0.2300 -0.0958  0.5073
20367SOL    HW262543   5.913   3.915   0.901  0.6157  0.1878 -0.2857
20368SOL     OW62544   5.706   3.261   0.000  0.2980 -0.6382  0.1817
20368SOL    HW162545   5.639   3.198  -0.026 -1.5475  1.5536 -0.6525
20368SOL    HW262546   5.666   3.311   0.071  0.9921  0.8053 -0.4175
20369SOL     OW62547   5.364   1.565  10.740 -0.2306 -0.4695 -0.4400
20369SOL    HW162548   5.458   1.559  10.753 -0.2006 -0.5264 -0.6787
20369SOL    HW262549   5.354   1.617  10.660 -0.4125  0.0245 -0.1037
20370SOL     OW62550   6.936   2.099  11.507  0.0079  0.2423 -0.1230
20370SOL    HW162551   6.866   2.094  11.441  0.0614 -1.2492 -0.1102
20370SOL    HW262552   6.994   2.167  11.476 -1.5275  1.6447 -0.0572
20371SOL     OW62553   6.000   0.275  11.478  0.2059  0.3209 -0.5437
20371SOL    HW162554   6.065   0.297  11.412  0.6058 -1.5290 -0.8115
20371SOL    HW262555   6.018   0.184  11.500 -0.9850  0.4024  0.9027
20372SOL     OW62556   7.717   1.968   9.098 -0.2305 -0.6894 -0.7357
20372SOL    HW162557   7.755   1.992   9.182 -0.4526 -1.1725 -0.4910
20372SOL    HW262558   7.792   1.956   9.040 -0.1273  2.4060 -1.4191
20373SOL     OW62559   7.498   3.190  11.124  0.0780  0.3236  0.1410
20373SOL    HW162560   7.495   3.277  11.085  1.8911  1.0666  1.5171
20373SOL    HW262561   7.591   3.175  11.140 -0.1207 -2.1517 -0.6161
20374SOL     OW62562   7.620   3.601  10.151 -0.0804 -0.1556 -0.4006
20374SOL    HW162563   7.526   3.590  10.139 -0.3818  1.0553  0.6883
20374SOL    HW262564   7.649   3.522  10.196 -0.4974 -0.7046 -1.0855
20375SOL     OW62565   6.737   3.006  12.049 -0.0446  0.2633 -0.0271
20375SOL    HW162566   6.659   3.025  12.101  0.5760 -0.2676  1.1368
20375SOL    HW262567   6.713   3.030  11.959 -2.1070 -1.3873  0.0103
20376SOL     OW62568   4.489   3.013   0.910 -0.2293  0.4912  0.6381
20376SOL    HW162569   4.577   3.017   0.947  0.5788  1.8388 -1.2520
20376SOL    HW262570   4.484   2.927   0.867  0.7008  0.9349 -0.3980
20377SOL     OW62571   6.741   2.033   0.692  0.2514  0.5860  0.3090
20377SOL    HW162572   6.831   2.000   0.691  0.6360  1.6247 -0.2838
20377SOL    HW262573   6.694   1.971   0.747  1.0500 -0.7103 -0.4148
20378SOL     OW62574   6.351   2.715  11.961 -0.0762 -0.6165  0.0183
20378SOL    HW162575   6.305   2.699  12.043  2.3472 -1.8866  1.2230
20378SOL    HW262576   6.346   2.631  11.914  0.4253 -0.5565 -0.1451
20379SOL     OW62577   5.664   3.785  11.145 -0.6077 -0.9084 -0.1401
20379SOL    HW162578   5.608   3.808  11.220 -0.1630 -1.3275  0.3297
20379SOL    HW262579   5.650   3.691  11.133 -0.2286 -0.9551 -0.2074
20380SOL     OW62580   7.603   1.853   0.103  0.0957 -0.7945  0.0111
20380SOL    HW162581   7.622   1.798   0.027  1.4035 -1.4839  0.8055
20380SOL    HW262582   7.579   1.791   0.172 -0.3058 -0.2255  0.3976
20381SOL     OW62583   7.984   1.917   0.132 -0.4864 -0.2868 -0.1487
20381SOL    HW162584   8.069   1.884   0.104 -1.0386 -0.5619 -1.5956
20381SOL    HW262585   7.938   1.938   0.051 -2.4287 -1.7493  0.4846
20382SOL     OW62586   4.947   1.716   0.274  0.2512 -0.4292  0.1382
20382SOL    HW162587   4.993   1.790   0.233 -0.5997  0.4015  0.6455
20382SOL    HW262588   4.893   1.757   0.342 -1.7513 -1.2926 -0.8693
20383SOL     OW62589   6.791   2.388  11.538 -0.8493  0.1498  0.3879
20383SOL    HW162590   6.883   2.365  11.526 -0.8980  0.0494  0.2045
20383SOL    HW262591   6.789   2.483  11.539 -0.5951  0.1619  1.5072
20384SOL     OW62592   0.010   2.451  11.569  0.0605  0.0982 -0.1330
20384SOL    HW162593  -0.077   2.450  11.528 -0.1949  1.0069  0.3607
20384SOL    HW262594   0.023   2.542  11.594  1.5820  0.1672 -1.0662
20385SOL     OW62595   7.942   1.717   0.317 -0.1828  0.1023  1.0304
20385SOL    HW162596   7.942   1.778   0.243  1.0756 -0.0425  0.8958
20385SOL    HW262597   8.033   1.717   0.348  0.2726 -2.9473 -0.0246
20386SOL     OW62598   6.425   2.988  11.001 -0.4120 -0.4622 -0.2018
20386SOL    HW162599   6.445   3.053  11.069 -1.1557 -0.7009  0.2500
20386SOL    HW262600   6.434   3.036  10.919 -2.2685  0.6038  0.1656
20387SOL     OW62601   7.820   3.471  11.198  0.1816  0.0547  0.2873
20387SOL    HW162602   7.762   3.526  11.145 -0.2876 -1.3045 -0.6643
20387SOL    HW262603   7.889   3.445  11.138  0.0476 -0.9120  0.5411
20388SOL     OW62604   7.121   3.173  11.603  0.2148 -0.3254 -0.0123
20388SOL    HW162605   7.135   3.144  11.513  0.3244  0.5424 -0.2937
20388SOL    HW262606   7.198   3.227  11.623 -0.6495  0.9835 -0.0587
20389SOL     OW62607   6.457   4.229   0.333 -0.5020  0.0451  0.0330
20389SOL    HW162608   6.457   4.161   0.400 -2.4262 -0.4902 -0.4497
20389SOL    HW262609   6.460   4.182   0.250  1.2601  0.6825 -0.3092
20390SOL     OW62610   4.662   3.019   0.465 -0.1332 -0.1949  0.2043
20390SOL    HW162611   4.727   3.076   0.507 -0.3272 -0.6468  1.1324
20390SOL    HW262612   4.579   3.041   0.506 -0.3569 -0.5486 -0.0434
20391SOL     OW62613   6.766   0.297   0.686 -0.2061  0.6743 -0.6892
20391SOL    HW162614   6.817   0.242   0.744  1.1769  0.8569 -1.6935
20391SOL    HW262615   6.761   0.248   0.604 -0.8773  1.0699 -0.9007
20392SOL     OW62616   7.668   3.660  11.064  0.1631  0.5441  0.0243
20392SOL    HW162617   7.637   3.750  11.071 -2.4179 -0.2663  0.1022
20392SOL    HW262618   7.687   3.648  10.971  0.3506  1.0917 -0.0138
20393SOL     OW62619   7.248   2.831   9.341  0.1812 -0.0031 -0.1982
20393SOL    HW162620   7.303   2.888   9.286  1.0256 -1.0214 -0.4516
20393SOL    HW262621   7.159   2.851   9.313  0.4133  1.4921  0.0203
20394SOL     OW62622   7.147   5.452  11.236  0.0314  0.0612  0.2121
20394SOL    HW162623   7.059   5.443  11.200  0.2368  0.6801 -0.4710
20394SOL    HW262624   7.183   5.530  11.194  1.3402 -0.8529 -0.4321
20395SOL     OW62625   6.435   1.230   1.602 -0.1649 -0.1138  0.2038
20395SOL    HW162626   6.494   1.155   1.593  1.1624  0.7367  1.2208
20395SOL    HW262627   6.348   1.195   1.588  0.5702 -1.4565 -1.2623
20396SOL     OW62628   0.765   2.948   0.995 -0.6032  0.1882  0.1209
20396SOL    HW162629   0.679   2.922   1.030 -0.4157  0.7010  1.0131
20396SOL    HW262630   0.748   2.974   0.905 -1.4562  0.6126  0.3942
20397SOL     OW62631   7.229   1.880  11.432  0.2136 -0.2385  0.2766
20397SOL    HW162632   7.279   1.803  11.458 -1.9307 -0.9264  2.8218
20397SOL    HW262633   7.220   1.931  11.512 -0.4015  1.5052 -0.8443
20398SOL     OW62634   6.982   3.888  11.207  0.4663 -0.5179 -0.1299
20398SOL    HW162635   7.039   3.959  11.238  0.9860 -0.8208 -0.3897
20398SOL    HW262636   7.020   3.808  11.243  0.3000 -0.7391 -0.4383
20399SOL     OW62637   4.711   4.096   0.534  0.7217  0.5401  0.0030
20399SOL    HW162638   4.758   4.045   0.468 -0.7925  0.0825 -0.7766
20399SOL    HW262639   4.662   4.032   0.584 -0.1049  1.0922 -0.0694
20400SOL     OW62640   7.661   2.228   0.406  0.4175  0.0586  0.0441
20400SOL    HW162641   7.726   2.208   0.339 -0.3517 -1.0070 -0.3923
20400SOL    HW262642   7.599   2.156   0.403 -0.6416  0.9109  0.6529
20401SOL     OW62643   5.901   3.365  10.804  0.0090  0.0340  0.0662
20401SOL    HW162644   5.809   3.341  10.807 -0.3263  1.3797  1.7471
20401SOL    HW262645   5.901   3.461  10.809  1.3929  0.3672 -3.4142
20402SOL     OW62646   5.082   4.064  11.725 -0.1679 -0.1152 -0.0095
20402SOL    HW162647   5.128   4.122  11.664 -0.5754  0.8065  0.5426
20402SOL    HW262648   5.131   4.071  11.806  0.0907 -0.9683 -0.0824
20403SOL     OW62649   5.120   2.514  11.120  0.1755 -0.3483  0.2224
20403SOL    HW162650   5.173   2.573  11.066 -1.1763  0.6267 -0.1028
20403SOL    HW262651   5.090   2.446  11.060  0.0191 -0.1775  0.1045
20404SOL     OW62652   7.173   3.589  11.065 -0.6539 -0.2391  0.1259
20404SOL    HW162653   7.188   3.645  10.989  2.4303 -0.4141  0.4567
20404SOL    HW262654   7.205   3.640  11.139  0.7714 -1.7406  0.6245
20405SOL     OW62655   7.260   2.795  10.239  0.4760  0.4150  0.1380
20405SOL    HW162656   7.246   2.715  10.189  0.5172  0.4192  0.1199
20405SOL    HW262657   7.176   2.811  10.283  0.4738  0.3533  0.1551
20406SOL     OW62658   6.900   4.559   9.944  0.1596  0.0468 -0.5030
20406SOL    HW162659   6.972   4.545   9.883 -0.8892 -1.4461 -1.4786
20406SOL    HW262660   6.864   4.471   9.959  0.4038  0.3378  2.3395
20407SOL     OW62661   5.146   2.237  11.005  0.6708  0.5005 -0.1412
20407SOL    HW162662   5.135   2.164  11.065  1.6027 -1.0196 -1.7133
20407SOL    HW262663   5.238   2.233  10.978  0.9800  2.7980  0.3434
20408SOL     OW62664   6.388   2.504  10.112 -0.0964 -0.0862  0.4475
20408SOL    HW162665   6.418   2.482  10.024  1.2526 -0.3247  0.9455
20408SOL    HW262666   6.424   2.435  10.168  0.1001  0.7338  1.3621
20409SOL     OW62667   7.055   4.668  12.252 -0.1072  0.0909  0.2204
20409SOL    HW162668   7.011   4.714  12.323 -1.0909 -1.1293  0.4472
20409SOL    HW262669   6.987   4.654  12.187  0.6456  0.6635 -0.7040
20410SOL     OW62670   7.621   4.034  12.003 -0.1147  0.6049 -0.1102
20410SOL    HW162671   7.614   4.114  12.056 -0.9746  0.9861 -0.7727
20410SOL    HW262672   7.684   3.980  12.050 -2.0617  0.2138  2.2741
20411SOL     OW62673   7.278   7.638   0.669 -0.1784  0.5855 -0.0017
20411SOL    HW162674   7.368   7.609   0.683 -0.7442 -1.2172  0.2365
20411SOL    HW262675   7.275   7.726   0.707  1.3850  0.5342  0.3135
20412SOL     OW62676   7.540   2.172  11.399 -0.1054  0.3388 -0.1455
20412SOL    HW162677   7.461   2.135  11.361  0.5543 -0.9948 -0.2905
20412SOL    HW262678   7.567   2.240  11.337 -0.3935 -0.1431 -0.8179
20413SOL     OW62679   7.365   4.552  10.008  0.0304  0.1419 -0.5465
20413SOL    HW162680   7.373   4.603  10.088  3.3219  0.7389 -1.1222
20413SOL    HW262681   7.385   4.462  10.034  2.3110  0.5289 -0.8303
20414SOL     OW62682   0.095   2.138   0.580  0.6428  0.2655  0.1942
20414SOL    HW162683   0.072   2.204   0.646  0.7794  0.6372 -0.1324
20414SOL    HW262684   0.093   2.055   0.629 -2.0100  0.1702  0.0865
20415SOL     OW62685   5.097   3.640  11.212  0.4048  0.4844  0.2838
20415SOL    HW162686   5.041   3.571  11.247 -0.0256  1.0972  0.8369
20415SOL    HW262687   5.185   3.617  11.242  0.5160 -0.6224 -0.8095
20416SOL     OW62688   7.479   2.220  11.675  0.2969 -0.2383  0.2566
20416SOL    HW162689   7.458   2.311  11.696  1.0709 -0.2888  1.3420
20416SOL    HW262690   7.500   2.221  11.582 -0.9235  0.4486 -0.0384
20417SOL     OW62691   7.358   3.158   0.422  0.2251  0.1968 -0.1377
20417SOL    HW162692   7.328   3.140   0.333  0.0601  0.5391 -0.1553
20417SOL    HW262693   7.373   3.072   0.461 -0.0770  0.0397 -0.3687
20418SOL     OW62694   0.503   1.352  11.274 -0.2066 -0.1150 -0.0837
20418SOL    HW162695   0.552   1.420  11.321 -2.9229  0.3521  2.3265
20418SOL    HW262696   0.438   1.400  11.223  1.0776 -0.7669 -2.4982
20419SOL     OW62697   7.446   2.479  11.664  0.1523 -0.4693 -0.0618
20419SOL    HW162698   7.526   2.533  11.665  0.1282 -0.4122  1.7967
20419SOL    HW262699   7.397   2.511  11.589  0.3339  1.8643  0.7292
20420SOL     OW62700   5.094   2.634  10.406 -0.1379 -0.1020 -0.0169
20420SOL    HW162701   5.044   2.606  10.330  0.4583  2.6877 -1.5646
20420SOL    HW262702   5.058   2.583  10.479 -1.2608 -2.2991 -1.9717
20421SOL     OW62703   0.463   3.150  11.531  0.0812  0.3779 -0.1985
20421SOL    HW162704   0.531   3.129  11.595  0.3985 -0.9053 -0.9109
20421SOL    HW262705   0.485   3.237  11.499  1.2292  0.1091 -0.1853
20422SOL     OW62706   7.040   1.977   9.974  0.1767 -0.0093 -0.3779
20422SOL    HW162707   6.969   2.019  10.023  1.1118  0.9060  0.2465
20422SOL    HW262708   7.011   1.887   9.962  0.2284 -0.5393  2.6336
20423SOL     OW62709   7.607   4.283  12.108 -0.1884 -0.3042  0.1408
20423SOL    HW162710   7.665   4.358  12.101 -0.2277 -0.2431  0.4356
20423SOL    HW262711   7.530   4.307  12.057 -0.5542  0.2054  0.9123
20424SOL     OW62712   6.759   3.264   9.304  0.3244 -0.0888 -0.5138
20424SOL    HW162713   6.795   3.287   9.389 -0.1000  0.6377 -0.5282
20424SOL    HW262714   6.710   3.341   9.276  2.3487  0.5989 -2.4651
20425SOL     OW62715   5.546   2.255   1.009 -0.3447 -0.1020 -0.8103
20425SOL    HW162716   5.478   2.223   0.951 -0.2315  0.4015 -1.2224
20425SOL    HW262717   5.520   2.345   1.030 -1.6541 -0.9990  1.8291
20426SOL     OW62718   7.908   0.859   2.254 -0.5067  0.5970 -0.4318
20426SOL    HW162719   7.954   0.792   2.205 -0.1033 -0.5312  1.4051
20426SOL    HW262720   7.909   0.936   2.197  0.6440 -0.4090 -1.8178
20427SOL     OW62721   6.992   4.195  10.595 -0.3313 -0.1338  0.1002
20427SOL    HW162722   7.019   4.240  10.675 -0.6156 -0.6285  0.4860
20427SOL    HW262723   6.937   4.258  10.548  0.1438  0.2886  0.1161
20428SOL     OW62724   7.238   1.220  10.979  0.6651  0.3352  0.1502
20428SOL    HW162725   7.212   1.312  10.984  0.9460  0.3875  0.7328
20428SOL    HW262726   7.328   1.219  11.010  0.5024 -0.2090  0.6110
20429SOL     OW62727   5.166   1.512  10.911  0.2161  0.2035  0.2590
20429SOL    HW162728   5.090   1.483  10.860  0.4569  0.2357 -0.1166
20429SOL    HW262729   5.240   1.503  10.852  0.4704  0.4244  0.5387
20430SOL     OW62730   7.497   1.601  12.220  0.1556 -0.2983  0.3559
20430SOL    HW162731   7.486   1.510  12.249  0.7735 -0.9835 -1.4503
20430SOL    HW262732   7.545   1.595  12.137 -1.0369  1.6067 -0.5417
20431SOL     OW62733   6.001   3.405  11.185  0.2589 -0.2971 -0.4246
20431SOL    HW162734   5.985   3.456  11.265  0.1046  1.9281 -1.7926
20431SOL    HW262735   5.969   3.461  11.114  0.4401 -2.1802 -2.0752
20432SOL     OW62736   7.289   2.815  10.926  0.0875 -0.4115  0.1090
20432SOL    HW162737   7.337   2.733  10.939 -1.7436 -1.1499  3.3585
20432SOL    HW262738   7.208   2.803  10.975 -0.2486  3.3586  0.7754
20433SOL     OW62739   5.995   2.876  12.232 -0.0970  0.9624 -0.2686
20433SOL    HW162740   6.015   2.970  12.230 -0.5433  1.0684  0.0441
20433SOL    HW262741   5.943   2.865  12.311 -2.5977  0.9606 -1.8251
20434SOL     OW62742   4.261   4.504   0.188  0.5286  0.4126  0.0075
20434SOL    HW162743   4.247   4.523   0.281  1.3419 -1.1642  0.4835
20434SOL    HW262744   4.248   4.410   0.181  1.4387  0.3669 -1.2951
20435SOL     OW62745   4.814   3.856   0.440 -0.4032  0.1161 -0.3899
20435SOL    HW162746   4.774   3.794   0.502  0.5538  0.6625  0.8272
20435SOL    HW262747   4.788   3.824   0.354  0.4886 -2.2981  0.1393
20436SOL     OW62748   5.954   3.858   0.588  0.1329 -0.6092  0.3101
20436SOL    HW162749   5.865   3.861   0.623  0.9624 -0.0919  2.5663
20436SOL    HW262750   5.993   3.780   0.628  1.4924  0.6623  1.5922
20437SOL     OW62751   5.841   5.900  12.289  0.4123 -0.1763 -0.5567
20437SOL    HW162752   5.814   5.817  12.329 -0.1079  0.1457 -0.2281
20437SOL    HW262753   5.875   5.952  12.362  0.2281  0.1025 -0.6677
20438SOL     OW62754   6.231   3.034   1.647 -0.0124  0.0118 -0.1331
20438SOL    HW162755   6.230   3.101   1.579  2.5930 -0.2006 -0.5093
20438SOL    HW262756   6.174   3.069   1.716 -0.0272  1.8311 -0.9980
20439SOL     OW62757   6.860   4.943  12.149  0.2141  0.0855  0.7820
20439SOL    HW162758   6.865   4.906  12.237 -0.6440 -0.5270  0.5926
20439SOL    HW262759   6.945   4.985  12.135 -0.0323  1.1616  2.3183
20440SOL     OW62760   6.253   4.617  12.245 -0.9769 -0.2400 -0.5205
20440SOL    HW162761   6.250   4.685  12.312  0.8474  0.7003 -1.3222
20440SOL    HW262762   6.203   4.653  12.172  0.6384  0.6071 -1.2331
20441SOL     OW62763   6.259   4.123   1.171  0.6481  0.3105  0.0493
20441SOL    HW162764   6.317   4.126   1.247  0.1537 -0.2721  0.4568
20441SOL    HW262765   6.183   4.073   1.200  0.6902 -0.3943 -0.9811
20442SOL     OW62766   6.185   4.755   0.870  0.1869  0.0939  0.4388
20442SOL    HW162767   6.211   4.668   0.838 -0.8963 -0.3042  0.5983
20442SOL    HW262768   6.090   4.753   0.870  0.0475  2.2150 -2.0499
20443SOL     OW62769   5.010   4.098   1.486 -0.0933  0.6123  0.3647
20443SOL    HW162770   4.942   4.034   1.507  1.0748 -0.8495 -0.1543
20443SOL    HW262771   4.967   4.161   1.429 -0.9567 -0.4222 -0.1555
20444SOL     OW62772   6.450   3.855  11.714 -0.0659 -0.1690  0.3299
20444SOL    HW162773   6.446   3.879  11.622  0.0031  0.0761  0.3897
20444SOL    HW262774   6.541   3.834  11.730  0.0248  0.3019  0.4660
20445SOL     OW62775   7.513   5.052   1.187  0.5345  0.2392  0.2613
20445SOL    HW162776   7.502   5.004   1.269 -1.0105 -1.4667 -0.8729
20445SOL    HW262777   7.463   5.133   1.201  0.2388 -0.0557  0.9997
20446SOL     OW62778   6.474   4.723   1.300  0.1328 -0.9209  0.2881
20446SOL    HW162779   6.561   4.763   1.300 -0.0021 -0.6234 -0.0270
20446SOL    HW262780   6.413   4.797   1.304 -0.1340 -1.0254 -1.1584
20447SOL     OW62781   7.352   4.185  11.371 -0.7579 -0.5971  0.7700
20447SOL    HW162782   7.332   4.197  11.278 -1.9804 -1.6378  0.8827
20447SOL    HW262783   7.327   4.268  11.412  0.8358  0.2841  0.0383
20448SOL     OW62784   6.231   5.799  12.456  0.4521 -0.2424 -0.0564
20448SOL    HW162785   6.279   5.840  12.384 -0.0065  0.1148 -0.1659
20448SOL    HW262786   6.166   5.865  12.482 -0.7213 -1.1216 -0.6545
20449SOL     OW62787   7.560   5.789   1.623 -0.5190 -0.1253  0.1715
20449SOL    HW162788   7.606   5.868   1.650 -0.3427 -0.8262  2.0784
20449SOL    HW262789   7.628   5.732   1.587 -0.1705 -0.4090  1.2306
20450SOL     OW62790   6.765   4.293   0.686  0.1983  0.2260  0.4747
20450SOL    HW162791   6.683   4.287   0.636 -0.1107 -0.4617  1.0348
20450SOL    HW262792   6.736   4.302   0.777  0.7535  0.8991  0.5903
20451SOL     OW62793   7.178   3.929   1.201 -0.3865  0.2230  0.3594
20451SOL    HW162794   7.223   4.013   1.215 -1.3680  0.5959  1.4143
20451SOL    HW262795   7.239   3.864   1.235 -0.3613  0.6787  1.2332
20452SOL     OW62796   7.248   4.636   0.877 -0.5825  0.6479  0.4031
20452SOL    HW162797   7.297   4.676   0.949 -1.9580  0.4197  1.4852
20452SOL    HW262798   7.195   4.707   0.842 -1.4968  0.2794  1.0062
20453SOL     OW62799   6.958   5.236   0.078 -0.1615 -0.2668  0.1149
20453SOL    HW162800   6.993   5.322   0.102 -0.1029 -0.4125  0.5632
20453SOL    HW262801   7.026   5.195   0.025 -1.0133  0.7789 -1.8873
20454SOL     OW62802   7.382   4.541   1.175  0.2984 -0.4263 -0.2729
20454SOL    HW162803   7.373   4.627   1.134  0.0756 -0.4982 -0.3762
20454SOL    HW262804   7.428   4.558   1.257  1.5257 -0.3873 -0.9438
20455SOL     OW62805   6.606   4.329   1.624  0.8156  0.0794 -0.3636
20455SOL    HW162806   6.654   4.411   1.616  0.7846  0.1002 -0.3366
20455SOL    HW262807   6.641   4.287   1.702 -0.4964  0.9490  0.7501
20456SOL     OW62808   0.368   5.130   0.180 -0.0379  0.1392  0.4972
20456SOL    HW162809   0.391   5.140   0.272  0.6406  0.5669  0.2957
20456SOL    HW262810   0.361   5.036   0.166  1.8381 -0.0487  0.5445
20457SOL     OW62811   4.494   4.870  12.194 -0.0428 -0.7312  0.2784
20457SOL    HW162812   4.404   4.862  12.225 -0.3678 -1.3655 -0.7968
20457SOL    HW262813   4.546   4.880  12.274 -1.2549  1.9101  0.8648
20458SOL     OW62814   7.838   5.551   0.931  0.0148 -0.6311  0.1609
20458SOL    HW162815   7.812   5.509   1.013 -1.1129 -1.0109 -0.3762
20458SOL    HW262816   7.867   5.479   0.875  1.9117 -0.2696  0.5841
20459SOL     OW62817   6.194   4.362  12.175 -0.4614 -0.3219 -0.5199
20459SOL    HW162818   6.131   4.325  12.236  1.2772 -0.6499  1.1833
20459SOL    HW262819   6.218   4.446  12.214  2.1384 -1.3950  0.4264
20460SOL     OW62820   7.223   5.035   0.673 -0.1460  0.2299  0.2874
20460SOL    HW162821   7.218   5.076   0.760  0.4454 -1.4848  1.1879
20460SOL    HW262822   7.317   5.030   0.654 -0.2731  0.5719 -0.4386
20461SOL     OW62823   5.582   4.730   0.442  0.2087  0.1421 -0.3268
20461SOL    HW162824   5.494   4.759   0.465  0.5665  0.2639  0.9198
20461SOL    HW262825   5.575   4.704   0.350 -1.1041  0.2263 -0.2652
20462SOL     OW62826   7.754   4.992   1.916  0.1128 -0.3523  0.3055
20462SOL    HW162827   7.672   5.043   1.914  0.3569  0.0754  0.8529
20462SOL    HW262828   7.802   5.023   1.839  0.8570  1.2904  1.3707
20463SOL     OW62829   5.369   2.834   0.361 -0.3061  0.3772 -0.2100
20463SOL    HW162830   5.403   2.837   0.451 -1.9047  1.9381  0.4027
20463SOL    HW262831   5.292   2.778   0.367 -0.4012  0.4652 -0.6107
20464SOL     OW62832   5.807   3.803   1.889 -0.4249  0.3304 -0.0209
20464SOL    HW162833   5.876   3.831   1.828 -0.8782 -0.3129 -0.8550
20464SOL    HW262834   5.735   3.864   1.875 -0.1769  0.7616  0.5647
20465SOL     OW62835   7.214   5.312  11.943 -0.3075  0.6229 -0.5781
20465SOL    HW162836   7.290   5.278  11.992 -0.0943  0.9359 -0.6887
20465SOL    HW262837   7.220   5.269  11.858 -0.4543  0.3776 -0.4637
20466SOL     OW62838   7.164   5.378   1.642  0.1134 -0.1782 -1.0715
20466SOL    HW162839   7.219   5.453   1.666  0.7787 -0.1895 -2.4760
20466SOL    HW262840   7.088   5.417   1.600 -0.9451 -0.1715  0.7308
20467SOL     OW62841   5.055   3.873   1.732  0.4326 -0.1445  0.1288
20467SOL    HW162842   5.104   3.886   1.651 -0.4651 -1.2291 -0.6300
20467SOL    HW262843   4.985   3.812   1.708 -1.0076  0.9811  1.2713
20468SOL     OW62844   1.238   4.851   1.199  0.6149  0.2320  0.3982
20468SOL    HW162845   1.274   4.897   1.275  1.0342  1.5289 -0.5572
20468SOL    HW262846   1.294   4.876   1.126 -0.0109 -0.6898 -0.4323
20469SOL     OW62847   7.972   6.268   1.517  0.4855 -0.0644 -0.2875
20469SOL    HW162848   8.013   6.282   1.602  0.3627 -0.1719 -0.2095
20469SOL    HW262849   7.891   6.318   1.521  0.7847  0.4505 -0.5800
20470SOL     OW62850   5.085   3.741  11.918 -0.4354 -0.5863  0.1972
20470SOL    HW162851   5.134   3.766  11.996 -1.2754 -1.5840  1.0824
20470SOL    HW262852   5.136   3.670  11.879  0.1754  0.1594 -0.3860
20471SOL     OW62853   7.114   4.208   0.893 -0.4546 -0.1029  0.1921
20471SOL    HW162854   7.191   4.265   0.904  0.5150 -1.3514  0.1020
20471SOL    HW262855   7.054   4.236   0.962 -1.2445  2.9016 -1.5304
20472SOL     OW62856   7.276   4.015  11.785  0.7514 -0.7522  0.3442
20472SOL    HW162857   7.293   3.990  11.876 -0.3898 -0.1962  0.7320
20472SOL    HW262858   7.258   4.109  11.789 -1.0098 -1.0213 -0.1719
20473SOL     OW62859   6.856   3.366   0.546  0.4993  0.2668 -0.0716
20473SOL    HW162860   6.798   3.390   0.618  0.8504  2.3568 -0.4396
20473SOL    HW262861   6.929   3.322   0.588  1.0322  2.0674  0.9672
20474SOL     OW62862   1.443   5.644  12.320  0.1323  1.1947 -0.6498
20474SOL    HW162863   1.379   5.578  12.345  1.0965  1.0433  1.6791
20474SOL    HW262864   1.523   5.594  12.302  0.8214  1.6502  0.9687
20475SOL     OW62865   6.079   4.934   2.272  0.9533  0.2199 -0.0301
20475SOL    HW162866   6.128   5.000   2.322  1.6662  0.5592 -1.1338
20475SOL    HW262867   6.024   4.984   2.213  1.0633 -0.1752 -0.4717
20476SOL     OW62868   7.160   2.888  12.425  0.0004 -0.5179 -0.2158
20476SOL    HW162869   7.069   2.877  12.399 -0.7869  0.1828  1.9452
20476SOL    HW262870   7.184   2.975  12.392 -0.3991 -0.3561 -0.0884
20477SOL     OW62871   5.058   3.493  12.201 -0.3995  0.8826 -0.3737
20477SOL    HW162872   5.080   3.484  12.294  1.1560 -2.0151 -0.8836
20477SOL    HW262873   5.008   3.574  12.196 -1.2133  0.7692  3.0915
20478SOL     OW62874   4.477   7.602   1.200 -0.2991  0.2934 -0.5344
20478SOL    HW162875   4.542   7.659   1.242 -0.4367 -0.3166  0.5242
20478SOL    HW262876   4.436   7.554   1.272 -1.3106  0.0176 -1.2690
20479SOL     OW62877   6.612   4.146  11.711  0.0466  0.1258  0.2039
20479SOL    HW162878   6.674   4.126  11.782 -1.2865  0.1716  1.4131
20479SOL    HW262879   6.532   4.099  11.734 -0.6425  0.6822 -0.9410
20480SOL     OW62880   7.896   4.982   3.595 -0.7534  0.4924 -0.1306
20480SOL    HW162881   7.820   4.947   3.547 -1.0853 -0.9289  1.3467
20480SOL    HW262882   7.858   5.021   3.673 -0.1663  2.2259 -0.6772
20481SOL     OW62883   6.331   4.705   0.251  0.1125 -0.3000  0.2172
20481SOL    HW162884   6.269   4.671   0.316  0.4198 -1.1817  0.0574
20481SOL    HW262885   6.370   4.782   0.293 -0.9996  0.2025  0.3612
20482SOL     OW62886   6.420   2.412   0.556  0.1448 -0.2810  0.1136
20482SOL    HW162887   6.413   2.496   0.601 -2.4573 -0.3510 -0.0495
20482SOL    HW262888   6.400   2.347   0.623  0.2254 -0.6556 -0.2230
20483SOL     OW62889   6.483   4.582   1.068  0.2958 -0.0390 -0.4279
20483SOL    HW162890   6.477   4.612   1.159  1.1871 -2.1645  0.3949
20483SOL    HW262891   6.392   4.568   1.042 -0.0086  1.2265 -0.1046
20484SOL     OW62892   7.670   5.997   0.082 -0.3306 -0.0864  0.4578
20484SOL    HW162893   7.673   5.992  -0.013  0.7715  0.6789  0.4398
20484SOL    HW262894   7.581   5.969   0.104 -1.1819  1.3708 -0.9020
20485SOL     OW62895   0.890   5.354   0.138  0.1308 -0.6930  0.0067
20485SOL    HW162896   0.862   5.301   0.064 -0.9531  0.0919 -0.1654
20485SOL    HW262897   0.982   5.330   0.152  0.2341 -1.1204 -1.3401
20486SOL     OW62898   7.677   3.988   2.804  0.2708 -0.1596 -0.3642
20486SOL    HW162899   7.601   3.998   2.861  0.9180 -3.0754  1.2374
20486SOL    HW262900   7.715   4.076   2.797 -1.7995  0.8886  0.8531
20487SOL     OW62901   5.138   2.827   1.675  0.1893  0.0690 -0.1988
20487SOL    HW162902   5.060   2.880   1.660  0.1828 -0.0815 -0.7027
20487SOL    HW262903   5.205   2.866   1.619  0.1426 -0.5399 -0.6872
20488SOL     OW62904   6.489   4.411   1.326  0.7138 -0.3224  0.1969
20488SOL    HW162905   6.444   4.337   1.368  0.2791 -1.1506 -1.6444
20488SOL    HW262906   6.496   4.386   1.234  4.4221  0.0385  0.2588
20489SOL     OW62907   7.313   4.759  11.947 -0.0849 -0.2170  0.0720
20489SOL    HW162908   7.277   4.788  12.031 -0.2119  0.2313 -0.1328
20489SOL    HW262909   7.345   4.671  11.964 -0.7897 -0.4215  0.4051
20490SOL     OW62910   5.873   2.412   2.387 -0.0154  0.4452  0.1948
20490SOL    HW162911   5.876   2.505   2.411 -1.7411  0.4159  0.6323
20490SOL    HW262912   5.851   2.368   2.469 -0.9152 -0.1767 -0.3729
20491SOL     OW62913   5.925   4.380   0.356  0.0534  0.2078  0.5190
20491SOL    HW162914   5.885   4.424   0.431  0.0127  0.3211  0.4301
20491SOL    HW262915   5.891   4.290   0.361 -0.6308  0.4352  0.1456
20492SOL     OW62916   5.067   6.350  12.457 -0.0087 -0.2874 -0.1748
20492SOL    HW162917   5.092   6.430  12.411 -2.8624  0.6587 -0.2389
20492SOL    HW262918   5.101   6.279  12.402  2.5480  0.7702 -0.1257
20493SOL     OW62919   0.730   5.034   0.117  0.4272 -0.0349 -0.0650
20493SOL    HW162920   0.705   5.082   0.038  0.9783  1.8971  0.8836
20493SOL    HW262921   0.661   4.968   0.126  0.3361 -0.3019 -2.1208
20494SOL     OW62922   6.100   7.475  12.463 -0.2967 -0.6237 -0.0591
20494SOL    HW162923   6.007   7.480  12.440 -0.6358 -0.8637  1.1418
20494SOL    HW262924   6.108   7.529  12.542  0.6373 -0.4272 -0.2754
20495SOL     OW62925   4.796   4.102   1.682  0.0322  0.1926 -0.3742
20495SOL    HW162926   4.756   4.025   1.642  2.4617 -1.1763 -0.4160
20495SOL    HW262927   4.743   4.175   1.652 -0.7866 -1.1988 -2.6132
20496SOL     OW62928   6.408   2.312   1.172 -0.0006 -0.2131  0.2921
20496SOL    HW162929   6.316   2.324   1.148 -0.7939 -1.6555  2.3420
20496SOL    HW262930   6.439   2.401   1.191 -1.5773  0.1301  1.4926
20497SOL     OW62931   6.783   1.753   2.237 -0.2607  0.8847  0.4665
20497SOL    HW162932   6.723   1.817   2.199  0.5710 -0.0507 -2.7036
20497SOL    HW262933   6.749   1.668   2.208  1.6947  0.2558 -0.1487
20498SOL     OW62934   5.479   4.267  12.161 -0.7915  0.4208  0.0897
20498SOL    HW162935   5.386   4.262  12.187 -0.4267  2.1801  1.9803
20498SOL    HW262936   5.485   4.349  12.111 -0.0584  0.9324  0.9995
20499SOL     OW62937   0.640   5.303   0.236  0.1785  0.7726  0.5880
20499SOL    HW162938   0.605   5.228   0.188  0.1679  0.3892  1.1817
20499SOL    HW262939   0.733   5.306   0.212  0.1148  0.7576  0.3335
20500SOL     OW62940   5.887   6.010   0.022 -0.0177  0.0327  0.2387
20500SOL    HW162941   5.821   6.062   0.068  0.4182  1.3177 -0.5467
20500SOL    HW262942   5.929   5.958   0.091  0.2486  1.4887  1.2255
20501SOL     OW62943   7.000   4.694   1.781 -0.7856 -0.6103  0.1287
20501SOL    HW162944   7.030   4.647   1.860  0.1483 -0.1278  0.0795
20501SOL    HW262945   6.983   4.625   1.718 -0.3828 -0.9481  0.3778
20502SOL     OW62946   6.774   4.961   0.429 -0.3717 -0.4543 -0.2046
20502SOL    HW162947   6.828   5.040   0.436 -1.2723  0.1715 -0.1498
20502SOL    HW262948   6.820   4.896   0.481  1.1484 -0.4028 -1.4268
20503SOL     OW62949   6.293   4.506   0.819 -0.5040 -0.4906  0.0851
20503SOL    HW162950   6.287   4.453   0.898  2.1478  1.3583  1.6810
20503SOL    HW262951   6.370   4.473   0.774  1.0286  1.6816  0.9672
20504SOL     OW62952   5.747   4.823   1.814  0.1003 -0.5382  0.0856
20504SOL    HW162953   5.680   4.791   1.875 -1.7179  2.5700 -0.1008
20504SOL    HW262954   5.700   4.837   1.732  1.6620 -0.9103 -0.9313
20505SOL     OW62955   5.897   5.453   0.822  0.1591 -0.0098 -0.6519
20505SOL    HW162956   5.865   5.368   0.853  2.0870 -1.2036 -1.7306
20505SOL    HW262957   5.820   5.495   0.783 -0.6574 -1.6430 -0.8885
20506SOL     OW62958   7.079   3.924   0.930  0.4442  0.1425 -0.0316
20506SOL    HW162959   7.078   4.017   0.905  0.5154 -0.0600 -0.8207
20506SOL    HW262960   7.094   3.925   1.025 -1.4241  0.9907  0.2908
20507SOL     OW62961   5.859   3.435  11.956 -0.3669 -0.0331 -0.5520
20507SOL    HW162962   5.889   3.450  11.867 -0.9232  0.8704 -0.6039
20507SOL    HW262963   5.896   3.508  12.007  1.4226 -1.4825  0.3417
20508SOL     OW62964   7.652   5.623   1.359 -0.2080 -0.0620 -0.3324
20508SOL    HW162965   7.738   5.665   1.347 -0.2193 -0.0043 -0.2117
20508SOL    HW262966   7.672   5.536   1.393 -0.1681 -0.2938 -0.9487
20509SOL     OW62967   6.064   5.686   0.737  0.0874 -0.5397 -0.5027
20509SOL    HW162968   6.038   5.606   0.783  0.4751 -1.1326 -1.2913
20509SOL    HW262969   5.984   5.716   0.693 -0.8436  1.1841  2.1324
20510SOL     OW62970   5.068   3.612  11.634 -0.1027 -0.0149  0.6313
20510SOL    HW162971   5.152   3.568  11.618  1.1080  2.1761  0.5067
20510SOL    HW262972   5.002   3.546  11.614  1.5457 -2.5497  2.7251
20511SOL     OW62973   7.557   6.907   1.767  0.5151  0.3361  0.1606
20511SOL    HW162974   7.634   6.962   1.784  0.0530  1.0673 -0.0688
20511SOL    HW262975   7.539   6.865   1.851  0.7697  0.6673  0.3883
20512SOL     OW62976   6.653   3.845  12.099  0.1434  0.0792 -0.5931
20512SOL    HW162977   6.680   3.904  12.169  2.3008  0.1885 -1.4329
20512SOL    HW262978   6.582   3.891  12.055 -1.2967 -0.0139  1.4646
20513SOL     OW62979   7.232   5.588   1.126  0.2348 -0.2341  0.3581
20513SOL    HW162980   7.266   5.673   1.098 -2.5995  0.9743  0.2254
20513SOL    HW262981   7.197   5.549   1.046 -2.3882  0.5103  1.0292
20514SOL     OW62982   7.356   4.034  12.337  0.1673  0.0338 -0.3395
20514SOL    HW162983   7.449   4.056  12.342  0.2126 -0.2833  0.3993
20514SOL    HW262984   7.316   4.081  12.410 -0.2134 -0.0104 -0.5153
20515SOL     OW62985   5.465   4.495   0.007 -0.3551 -0.3655 -0.3754
20515SOL    HW162986   5.388   4.530  -0.038 -0.4114 -0.9708 -0.7620
20515SOL    HW262987   5.508   4.572   0.044 -1.1448 -0.0253 -0.1546
20516SOL     OW62988   4.641   3.817   1.080 -0.5696  0.2216 -0.0695
20516SOL    HW162989   4.605   3.841   1.166 -1.2577 -0.7514 -0.0633
20516SOL    HW262990   4.564   3.814   1.022 -0.2347  0.0172 -0.5098
20517SOL     OW62991   0.639   5.656   2.712  0.0809 -0.2144 -0.4690
20517SOL    HW162992   0.580   5.709   2.658 -0.4567 -0.7318 -0.4075
20517SOL    HW262993   0.711   5.715   2.734 -0.2522  0.3353 -0.8188
20518SOL     OW62994   7.680   4.119   1.036  0.2086  0.5828  0.8388
20518SOL    HW162995   7.693   4.153   1.125 -1.5154  0.6843  1.0917
20518SOL    HW262996   7.588   4.092   1.035  0.1860  0.6554 -0.9382
20519SOL     OW62997   7.335   6.457   1.551 -0.4208 -0.1191 -0.2777
20519SOL    HW162998   7.273   6.527   1.530  0.4202  0.2841 -1.5294
20519SOL    HW262999   7.387   6.492   1.623 -0.3128  0.3534 -0.5849
20520SOL     OW63000   6.601   4.134  12.165 -0.0605 -0.1910  0.0467
20520SOL    HW163001   6.585   4.220  12.127  0.3093 -0.3762 -0.5449
20520SOL    HW263002   6.696   4.130  12.178 -0.0046 -0.7199 -0.4637
20521SOL     OW63003   5.851   2.973   0.596  0.0539 -0.4583 -0.1398
20521SOL    HW163004   5.822   2.882   0.606  0.6844 -0.7403 -0.7725
20521SOL    HW263005   5.803   3.021   0.663  0.7504 -1.4933  1.1414
20522SOL     OW63006   7.451   3.789   0.103 -0.0211 -0.2580  0.4264
20522SOL    HW163007   7.523   3.852   0.109 -0.8754  0.7614  0.2737
20522SOL    HW263008   7.473   3.736   0.026  0.8990 -0.3945  0.7686
20523SOL     OW63009   6.443   3.165   0.783 -0.3891 -0.0166  0.6680
20523SOL    HW163010   6.384   3.238   0.800 -0.0708  0.4811 -0.3005
20523SOL    HW263011   6.421   3.137   0.694  1.4652  0.8311 -0.1161
20524SOL     OW63012   6.889   4.775   0.570  0.3082  0.1615 -0.3414
20524SOL    HW163013   6.942   4.706   0.529  0.6788  1.1058 -1.5273
20524SOL    HW263014   6.808   4.731   0.595  0.2278 -0.5621 -1.7520
20525SOL     OW63015   7.825   7.528   3.148  0.0902 -0.6681  0.1029
20525SOL    HW163016   7.734   7.506   3.168 -0.3893 -0.3409 -1.5581
20525SOL    HW263017   7.852   7.464   3.082  0.3578  0.4587 -0.9434
20526SOL     OW63018   6.723   6.652  11.610  0.0633 -0.4082  0.7423
20526SOL    HW163019   6.807   6.606  11.602  2.2883  3.0342  2.1440
20526SOL    HW263020   6.720   6.711  11.535 -0.8804 -0.1415  0.9730
20527SOL     OW63021   6.938   6.436   1.811 -0.6239  0.6093  0.2063
20527SOL    HW163022   6.952   6.508   1.749  1.4945 -0.1799 -0.3064
20527SOL    HW263023   7.006   6.447   1.877 -0.1871 -0.9796  0.0527
20528SOL     OW63024   6.050   4.051   0.250 -0.4545 -0.0419  0.3871
20528SOL    HW163025   6.105   4.120   0.287 -0.6275  0.4083 -0.1787
20528SOL    HW263026   6.094   3.969   0.274 -0.4967  0.2439  1.4571
20529SOL     OW63027   6.826   4.195   1.279  0.3833 -0.6187 -0.2294
20529SOL    HW163028   6.779   4.123   1.320 -0.4182  0.4070  0.7198
20529SOL    HW263029   6.821   4.267   1.342  0.4960  0.5121 -1.4447
20530SOL     OW63030   6.429   4.029   0.140 -0.5754  0.4630 -0.1100
20530SOL    HW163031   6.353   4.037   0.083 -0.9903  0.1366  0.3939
20530SOL    HW263032   6.490   3.973   0.091 -1.0520 -0.0628 -0.1086
20531SOL     OW63033   7.352   4.389   0.917  0.3323  0.5340  0.1119
20531SOL    HW163034   7.446   4.399   0.904  0.0620  1.5595 -1.4363
20531SOL    HW263035   7.325   4.472   0.959  0.3719 -0.5835  2.5263
20532SOL     OW63036   5.941   4.629   1.437 -0.3169  0.5362 -0.0461
20532SOL    HW163037   5.870   4.679   1.397 -1.4558  0.2284  1.4617
20532SOL    HW263038   5.903   4.542   1.453  0.8890 -0.1017 -0.5536
20533SOL     OW63039   6.167   6.219   1.379 -0.2125 -0.2229  0.8157
20533SOL    HW163040   6.248   6.267   1.367  0.0715 -0.3091  2.2410
20533SOL    HW263041   6.155   6.170   1.297  0.0289  1.4281 -0.2472
20534SOL     OW63042   6.204   3.292   0.607  0.1180  0.5175  0.0987
20534SOL    HW163043   6.178   3.376   0.645  0.0789  1.2009 -1.3553
20534SOL    HW263044   6.261   3.316   0.534  0.6400 -0.7588  0.0675
20535SOL     OW63045   5.694   2.516   1.008  0.0181 -0.2186  0.2286
20535SOL    HW163046   5.674   2.484   1.095 -0.4831  0.9493  0.5732
20535SOL    HW263047   5.612   2.557   0.978 -0.3506 -2.0478 -1.4933
20536SOL     OW63048   7.845   5.085   0.429 -0.2384 -0.4495  0.3191
20536SOL    HW163049   7.769   5.100   0.373 -0.3955 -2.4288 -0.0820
20536SOL    HW263050   7.895   5.017   0.383  1.7686  0.7671  0.5916
20537SOL     OW63051   6.957   5.688   0.633  0.6961 -0.0021 -0.0742
20537SOL    HW163052   7.005   5.621   0.682  1.3818 -0.8858 -1.8488
20537SOL    HW263053   7.020   5.759   0.623  0.0864  0.7945  1.4996
20538SOL     OW63054   6.936   3.200  11.991 -0.4279 -0.2686  0.1834
20538SOL    HW163055   6.973   3.167  11.909 -1.7460 -0.4698 -0.3655
20538SOL    HW263056   6.861   3.143  12.008 -0.7049  0.3343  1.0644
20539SOL     OW63057   5.684   3.744   1.104 -0.1041  0.3866  0.0711
20539SOL    HW163058   5.660   3.835   1.083  1.6135  0.8380 -0.1251
20539SOL    HW263059   5.779   3.747   1.116  0.0524 -1.4809 -0.4120
20540SOL     OW63060   4.741   5.153   2.421  0.3507 -0.5778  0.1050
20540SOL    HW163061   4.790   5.072   2.405  0.1930 -0.5687 -0.4474
20540SOL    HW263062   4.805   5.212   2.460  1.7778  0.5580 -3.4996
20541SOL     OW63063   0.208   4.281   2.503  0.4229  0.3122 -0.5927
20541SOL    HW163064   0.303   4.279   2.487  0.4715  1.3495 -0.5179
20541SOL    HW263065   0.173   4.336   2.434  0.3424  2.8776  1.3460
20542SOL     OW63066   4.886   3.406   1.751 -0.0430  0.5607  0.7373
20542SOL    HW163067   4.809   3.356   1.776 -1.8643  1.6607 -2.1770
20542SOL    HW263068   4.946   3.341   1.715 -0.9939  0.0278  0.0540
20543SOL     OW63069   5.393   4.231   1.194  0.6739  0.1499 -0.2311
20543SOL    HW163070   5.314   4.229   1.140 -0.3282 -3.1253  1.0969
20543SOL    HW263071   5.395   4.320   1.229 -0.5710  1.3078 -2.8139
20544SOL     OW63072   6.349   3.616  11.821 -0.1505 -0.2971 -0.1087
20544SOL    HW163073   6.404   3.562  11.763 -1.8907 -0.7587 -1.4090
20544SOL    HW263074   6.370   3.706  11.795  0.4669 -0.4451 -0.1366
20545SOL     OW63075   0.315   4.894   0.048  0.0621 -0.1517  0.3702
20545SOL    HW163076   0.315   4.942  -0.035 -0.0989 -0.1900  0.3469
20545SOL    HW263077   0.298   4.803   0.023  0.5071 -0.2428  0.4032
20546SOL     OW63078   0.131   3.833   0.670 -0.3702  0.3055 -0.7017
20546SOL    HW163079   0.049   3.881   0.680  0.2649  1.1201  0.9698
20546SOL    HW263080   0.135   3.776   0.747  0.4268 -0.0451 -0.9915
20547SOL     OW63081   5.993   3.774   1.006 -0.1155  0.3471 -0.4408
20547SOL    HW163082   6.007   3.708   0.938 -1.4789  0.3980 -0.8091
20547SOL    HW263083   6.016   3.730   1.087  1.5083  0.2708 -0.9028
20548SOL     OW63084   5.710   4.442   2.411 -0.4021 -0.3301  0.1030
20548SOL    HW163085   5.635   4.421   2.355 -0.5508  0.6670 -0.0944
20548SOL    HW263086   5.782   4.457   2.350  0.0064 -1.3822  0.2962
20549SOL     OW63087   5.433   3.496   2.766  0.1016  0.8573 -1.0474
20549SOL    HW163088   5.370   3.446   2.817 -0.1725  0.8415 -1.3928
20549SOL    HW263089   5.382   3.571   2.733  0.7218  1.8663  0.2170
20550SOL     OW63090   7.439   5.622   2.930 -0.3632 -0.1606  0.0326
20550SOL    HW163091   7.455   5.542   2.980  0.5792 -0.8228 -1.2708
20550SOL    HW263092   7.344   5.622   2.916 -0.3196 -1.3999 -0.4692
20551SOL     OW63093   5.534   2.663  11.962  0.3092  0.3023 -0.5789
20551SOL    HW163094   5.625   2.678  11.985  0.2905 -2.1745  1.6228
20551SOL    HW263095   5.495   2.750  11.961  2.3076  1.2771  0.3170
20552SOL     OW63096   0.532   4.492  11.263  0.1495 -0.0540  0.5272
20552SOL    HW163097   0.511   4.408  11.222  1.2639  0.8596 -2.0851
20552SOL    HW263098   0.622   4.481  11.295  0.1566  0.0288  0.5353
20553SOL     OW63099   7.162   4.421  12.290  0.2203 -0.5499  0.7388
20553SOL    HW163100   7.087   4.383  12.335  0.0856  0.0523  1.0265
20553SOL    HW263101   7.140   4.513  12.279 -0.9812 -1.1016 -3.0161
20554SOL     OW63102   0.714   0.156   2.451  0.4050 -0.1588  0.0406
20554SOL    HW163103   0.724   0.064   2.474  0.2606 -0.4944 -1.1633
20554SOL    HW263104   0.677   0.196   2.529  0.6631 -1.0766  0.6532
20555SOL     OW63105   7.224   5.319   2.057  0.2961 -0.2494  0.4890
20555SOL    HW163106   7.177   5.263   1.995  1.3787 -1.0790  0.3943
20555SOL    HW263107   7.306   5.339   2.013  0.6760 -0.0605  1.2730
20556SOL     OW63108   5.876   3.716   1.555 -0.3476 -0.1048 -0.1029
20556SOL    HW163109   5.788   3.701   1.589 -0.9418 -0.6074 -1.7547
20556SOL    HW263110   5.896   3.806   1.580 -0.3651 -0.6971  2.2755
20557SOL     OW63111   4.513   3.858   1.330  0.0499 -0.0387  0.0225
20557SOL    HW163112   4.443   3.827   1.387  1.0233 -1.9983  0.2123
20557SOL    HW263113   4.580   3.892   1.390 -0.6117  1.6973 -0.1535
20558SOL     OW63114   5.688   5.286   0.739 -0.2080 -0.0047 -0.5656
20558SOL    HW163115   5.755   5.265   0.674 -0.5038 -1.5370 -0.4086
20558SOL    HW263116   5.606   5.283   0.690 -0.3372 -0.0665 -0.3468
20559SOL     OW63117   7.268   5.154   0.943 -0.4698  0.2158 -0.3837
20559SOL    HW163118   7.295   5.191   1.027 -0.8787 -2.3416  1.0079
20559SOL    HW263119   7.316   5.204   0.877  1.0734  1.3074  1.4653
20560SOL     OW63120   6.419   4.204   1.469 -0.0416 -0.6127  0.3964
20560SOL    HW163121   6.469   4.127   1.439 -0.1033 -0.8599  0.9243
20560SOL    HW263122   6.474   4.244   1.535  0.4670  0.4180 -0.6216
20561SOL     OW63123   5.300   3.694   0.970 -0.1003  0.0164 -0.4095
20561SOL    HW163124   5.205   3.683   0.973 -0.1061  0.1182 -0.2122
20561SOL    HW263125   5.332   3.649   1.048 -0.2332  2.4987  1.1820
20562SOL     OW63126   5.837   3.147   1.078 -0.5208  0.2210  0.5713
20562SOL    HW163127   5.779   3.105   1.014 -1.4608  0.5779  1.1644
20562SOL    HW263128   5.782   3.157   1.156  0.3183  0.6659  1.1130
20563SOL     OW63129   6.970   4.478   0.732  0.2323  0.1127 -0.3209
20563SOL    HW163130   6.965   4.534   0.810 -0.9547  0.8804 -0.9386
20563SOL    HW263131   6.897   4.418   0.741 -0.3025  0.6312 -1.1693
20564SOL     OW63132   6.338   7.019   1.288  0.0961 -1.1735  0.0176
20564SOL    HW163133   6.280   7.042   1.360  0.9572  0.8956  0.1265
20564SOL    HW263134   6.285   6.963   1.231 -1.4703 -0.6583  0.9163
20565SOL     OW63135   5.802   4.891   0.269  0.4128  0.7124  0.4268
20565SOL    HW163136   5.722   4.944   0.264  0.4479  0.8597  1.2796
20565SOL    HW263137   5.873   4.954   0.258  0.4234  0.6224 -0.0427
20566SOL     OW63138   6.852   3.554  11.740  0.1551 -0.1800 -0.4293
20566SOL    HW163139   6.905   3.625  11.704  1.4698 -0.6975  0.4261
20566SOL    HW263140   6.836   3.580  11.831  0.1291 -0.6988 -0.2848
20567SOL     OW63141   5.470   3.975   1.315  0.8038  0.2353 -0.2024
20567SOL    HW163142   5.416   3.920   1.257  0.3278 -1.1243  1.4290
20567SOL    HW263143   5.422   4.057   1.321  0.0015 -0.1991 -0.4469
20568SOL     OW63144   6.702   3.982   0.765 -0.1517  0.4006 -0.4205
20568SOL    HW163145   6.726   4.015   0.852  2.0432 -1.9115 -0.0359
20568SOL    HW263146   6.637   3.914   0.781  0.0281  0.1783 -0.6335
20569SOL     OW63147   6.694   4.621   1.764  0.2096 -0.1592 -0.8430
20569SOL    HW163148   6.762   4.685   1.744 -2.2985  2.5090 -1.6048
20569SOL    HW263149   6.635   4.625   1.689 -0.8563 -2.3160 -0.2041
20570SOL     OW63150   5.275   3.131   1.728 -0.5297  0.1193  0.3376
20570SOL    HW163151   5.182   3.137   1.749 -0.2934 -1.3286  2.1113
20570SOL    HW263152   5.316   3.198   1.783 -0.2380 -1.4855  2.1705
20571SOL     OW63153   0.001   3.759   0.274  0.0233 -0.7632  0.4401
20571SOL    HW163154  -0.044   3.758   0.189  2.2924 -1.4900 -0.8388
20571SOL    HW263155  -0.052   3.817   0.329 -1.4254 -0.1319 -1.5111
20572SOL     OW63156   3.646   5.308   1.730 -0.5248 -0.4278  0.5854
20572SOL    HW163157   3.605   5.248   1.669 -0.9189 -0.2818  0.7041
20572SOL    HW263158   3.576   5.336   1.789 -0.4862  0.5913  0.1798
20573SOL     OW63159   0.010   4.971   1.435 -0.2643 -0.9686  0.3765
20573SOL    HW163160  -0.028   5.010   1.356 -1.0960 -2.4364  0.0138
20573SOL    HW263161   0.079   5.032   1.461 -1.7620  0.9497  0.0888
20574SOL     OW63162   5.544   4.062   0.246  0.5581 -0.6656 -0.0928
20574SOL    HW163163   5.488   3.985   0.256 -0.4080 -0.3147 -2.2939
20574SOL    HW263164   5.632   4.031   0.269  0.2895 -2.5981 -1.4154
20575SOL     OW63165   5.647   5.085   0.039 -0.1969 -0.1119  0.3145
20575SOL    HW163166   5.653   5.169   0.084 -2.1290  1.7090 -2.4876
20575SOL    HW263167   5.554   5.064   0.038  0.3080 -3.4052  2.5166
20576SOL     OW63168   4.568   5.476   0.511 -0.3274  0.0548 -0.0858
20576SOL    HW163169   4.563   5.572   0.505  0.7283  0.2112  1.1315
20576SOL    HW263170   4.527   5.455   0.595  1.0008 -0.3796  0.4841
20577SOL     OW63171   7.278   5.876   1.637 -0.0730  0.6287 -0.5381
20577SOL    HW163172   7.240   5.789   1.649  0.6380  0.3395 -0.3507
20577SOL    HW263173   7.373   5.861   1.636  0.0757  1.4813  0.1448
20578SOL     OW63174   7.353   5.710   1.358 -0.3080 -0.8840  0.3433
20578SOL    HW163175   7.297   5.634   1.341 -1.8081  0.4187 -0.7306
20578SOL    HW263176   7.440   5.672   1.367 -0.7239 -2.6051 -1.7919
20579SOL     OW63177   7.578   5.603   0.007 -0.0480  0.3867 -0.1728
20579SOL    HW163178   7.544   5.516   0.028 -0.0356  0.4506  0.1106
20579SOL    HW263179   7.647   5.587  -0.057 -0.7578  0.2730 -0.9213
20580SOL     OW63180   0.867   6.060   0.463  0.2308 -0.6069  0.5521
20580SOL    HW163181   0.913   5.983   0.430 -0.7324 -0.7363 -0.5926
20580SOL    HW263182   0.847   6.111   0.384 -2.2575 -0.9587  0.8608
20581SOL     OW63183   7.033   7.134   1.760  0.3694  0.4141  0.1039
20581SOL    HW163184   7.066   7.211   1.714 -1.4874  0.1208 -1.8497
20581SOL    HW263185   6.957   7.166   1.810 -0.5405 -0.1418 -0.8850
20582SOL     OW63186   7.264   5.224   1.421  0.1131 -0.0469 -0.4429
20582SOL    HW163187   7.249   5.130   1.426 -1.6086  0.1812 -0.8331
20582SOL    HW263188   7.232   5.259   1.504 -0.2233  0.2966 -0.7097
20583SOL     OW63189   7.367   3.799  12.185  0.0989  0.0276  0.0678
20583SOL    HW163190   7.449   3.804  12.135  0.8574  0.8768  1.3479
20583SOL    HW263191   7.351   3.889  12.215 -1.0302 -0.2239  0.2743
20584SOL     OW63192   0.450   2.455   1.040 -0.3656 -0.3084  0.3124
20584SOL    HW163193   0.537   2.484   1.011 -0.5040  0.4073  0.5930
20584SOL    HW263194   0.460   2.361   1.055  0.6107 -0.0880  1.1980
20585SOL     OW63195   6.191   5.590  11.848  0.0211 -0.4961 -0.0982
20585SOL    HW163196   6.186   5.627  11.936 -1.0724 -1.7858  0.4246
20585SOL    HW263197   6.217   5.663  11.792  2.2689  0.0071  1.4915
20586SOL     OW63198   5.524   6.846   1.265 -0.6725  0.2306 -0.1197
20586SOL    HW163199   5.479   6.925   1.235  0.3883  0.9775  0.1721
20586SOL    HW263200   5.505   6.843   1.359 -0.3344  0.4143 -0.0417
20587SOL     OW63201   6.403   7.014   0.115  0.4810 -0.2785 -0.0296
20587SOL    HW163202   6.327   6.956   0.107 -0.4889  0.8873  0.4379
20587SOL    HW263203   6.374   7.084   0.173  2.4250 -0.5981  1.4362
20588SOL     OW63204   5.813   5.993   1.115 -0.5037 -0.2627 -0.2602
20588SOL    HW163205   5.755   5.919   1.096 -1.3098  0.1308  0.5510
20588SOL    HW263206   5.800   6.009   1.209 -0.4485  0.9844 -0.4498
20589SOL     OW63207   5.788   6.544  11.561 -0.1785  0.3963 -0.5742
20589SOL    HW163208   5.866   6.592  11.588 -0.1219  0.9882 -1.7113
20589SOL    HW263209   5.727   6.554  11.633  0.7555 -0.0103  0.2987
20590SOL     OW63210   7.045   6.683   1.243  0.3712  0.1230  0.3134
20590SOL    HW163211   7.101   6.643   1.177 -1.3823 -1.3573 -0.3728
20590SOL    HW263212   6.957   6.679   1.205 -0.5953 -0.1784  2.4695
20591SOL     OW63213   0.846   4.462   2.480 -0.0113  0.0997 -0.1999
20591SOL    HW163214   0.763   4.460   2.526  1.1869 -1.0057  2.0859
20591SOL    HW263215   0.878   4.552   2.490 -0.7779  0.4522 -0.8477
20592SOL     OW63216   6.647   3.009  12.433 -0.3367  0.4584 -0.1497
20592SOL    HW163217   6.628   2.989  12.525 -1.4089 -0.2439 -0.5038
20592SOL    HW263218   6.661   2.924  12.392 -0.9479  0.6919 -0.8588
20593SOL     OW63219   7.046   4.235  11.469 -0.4219  0.4122  0.1512
20593SOL    HW163220   7.096   4.317  11.472  0.4228  0.0144 -1.6545
20593SOL    HW263221   7.108   4.168  11.496 -0.9512  0.2832  1.0842
20594SOL     OW63222   7.008   6.194   1.197 -0.0156  0.3287 -0.5800
20594SOL    HW163223   7.050   6.209   1.112  1.0167 -0.4463 -0.2279
20594SOL    HW263224   7.060   6.244   1.259  1.0590 -1.4048  0.0039
20595SOL     OW63225   6.532   5.224  12.456  0.5237 -0.3230  0.0777
20595SOL    HW163226   6.565   5.155  12.399 -0.4398 -0.8863  0.1743
20595SOL    HW263227   6.601   5.237  12.521  0.0096 -2.4622  1.1261
20596SOL     OW63228   6.532   4.929  12.403  0.2279 -0.4570  0.6273
20596SOL    HW163229   6.476   4.860  12.437  0.9066 -1.1095  0.4339
20596SOL    HW263230   6.579   4.889  12.329 -1.2179  0.9323 -1.1273
20597SOL     OW63231   4.856   4.203   1.071 -0.1363  0.7884 -0.4017
20597SOL    HW163232   4.874   4.110   1.062 -3.2104  0.0623  0.0227
20597SOL    HW263233   4.885   4.225   1.159  0.2249  0.1317 -0.3506
20598SOL     OW63234   5.651   6.587   1.335 -0.2894 -0.3898 -0.4867
20598SOL    HW163235   5.739   6.601   1.370  0.1036  0.3387 -1.7029
20598SOL    HW263236   5.599   6.657   1.375  0.1531  0.4300 -1.2901
20599SOL     OW63237   6.225   4.384   1.059  0.6619  0.5117  0.3964
20599SOL    HW163238   6.212   4.298   1.098  1.2479  0.8166  1.3004
20599SOL    HW263239   6.207   4.445   1.131 -2.0856  1.2736 -0.7947
20600SOL     OW63240   4.226   3.020   1.513 -0.8857 -0.3052 -0.0757
20600SOL    HW163241   4.137   2.986   1.506 -1.3738  0.7702  0.7394
20600SOL    HW263242   4.234   3.084   1.443 -0.9186 -0.0304  0.1729
20601SOL     OW63243   4.200   4.888   1.019  0.1573  0.0809 -0.0048
20601SOL    HW163244   4.290   4.913   0.996  0.3563  1.1278  1.7765
20601SOL    HW263245   4.145   4.941   0.961  0.6610 -0.2008 -0.7622
20602SOL     OW63246   7.256   6.177   1.038  0.4072  0.0336  0.1846
20602SOL    HW163247   7.234   6.223   0.958  0.2598  1.0154  0.7803
20602SOL    HW263248   7.348   6.197   1.053  0.4186 -0.1001  0.2999
20603SOL     OW63249   4.831   5.467   1.057  0.2807 -0.2064 -0.7844
20603SOL    HW163250   4.810   5.485   1.148  0.2705  0.0556 -0.8374
20603SOL    HW263251   4.765   5.404   1.029 -0.0598  0.1371 -0.7712
20604SOL     OW63252   5.001   5.144   1.289  1.0080 -0.2915  0.3805
20604SOL    HW163253   4.999   5.213   1.355  1.7202  3.1773 -2.8835
20604SOL    HW263254   5.092   5.139   1.261  0.5937 -1.0038 -0.9668
20605SOL     OW63255   6.901   4.349  12.458 -0.0045 -0.1599  1.1306
20605SOL    HW163256   6.831   4.373  12.397  0.0016 -2.2315  0.1922
20605SOL    HW263257   6.929   4.431  12.498 -1.1518  1.0523 -0.4538
20606SOL     OW63258   0.664   4.552   1.852  0.2241 -0.6172 -0.0116
20606SOL    HW163259   0.688   4.474   1.901  0.1456 -1.0355 -0.6193
20606SOL    HW263260   0.739   4.569   1.795 -0.3625 -1.1493 -0.9651
20607SOL     OW63261   7.172   3.501   0.228  0.2749 -0.2395  0.3812
20607SOL    HW163262   7.200   3.573   0.285  1.0724 -0.1851 -0.0650
20607SOL    HW263263   7.253   3.463   0.195 -0.1584 -0.4052 -0.5428
20608SOL     OW63264   6.968   4.521  10.293  0.4288  0.9890 -0.3131
20608SOL    HW163265   6.909   4.446  10.288 -1.1315  2.1387  0.0188
20608SOL    HW263266   7.054   4.483  10.310 -0.2395 -0.7349 -0.6181
20609SOL     OW63267   5.894   4.222   0.990  0.3770 -0.1154 -0.6192
20609SOL    HW163268   5.874   4.243   0.899  0.4658  0.2431 -0.5574
20609SOL    HW263269   5.931   4.302   1.026  2.4743 -0.8945 -0.8900
20610SOL     OW63270   2.211   4.098   1.217 -0.2802  0.3371 -0.4170
20610SOL    HW163271   2.158   4.018   1.219 -0.5746  0.5432  0.3265
20610SOL    HW263272   2.191   4.142   1.300 -0.3461  1.3348 -0.9581
20611SOL     OW63273   6.436   5.303   2.513  0.1093  0.1132  0.3159
20611SOL    HW163274   6.495   5.372   2.542 -0.8047  0.5900  1.0975
20611SOL    HW263275   6.494   5.230   2.491  0.9908  0.5477  1.1103
20612SOL     OW63276   6.299   6.075   3.435 -0.1638  0.6597  0.1682
20612SOL    HW163277   6.362   6.092   3.366  0.4002 -1.7849  0.0065
20612SOL    HW263278   6.258   6.160   3.452  1.8715  1.9351 -0.9754
20613SOL     OW63279   6.105   4.143   2.637 -0.1861  0.4415  0.3836
20613SOL    HW163280   6.086   4.084   2.565 -1.1282 -1.7342  2.2745
20613SOL    HW263281   6.040   4.212   2.629 -2.0342 -1.1879  0.6025
20614SOL     OW63282   7.254   2.708  11.685 -0.1427  0.1389  0.7784
20614SOL    HW163283   7.181   2.770  11.686 -0.2651  0.1850 -2.0855
20614SOL    HW263284   7.325   2.752  11.732 -1.2630  0.9671  1.7554
20615SOL     OW63285   6.825   3.594  12.014 -0.0495 -0.1886 -0.4075
20615SOL    HW163286   6.772   3.519  12.038  0.3002 -0.0087  1.0531
20615SOL    HW263287   6.788   3.667  12.065  0.4434  0.3306 -0.7735
20616SOL     OW63288   5.298   3.136  11.846 -0.0392 -0.4350 -0.2842
20616SOL    HW163289   5.237   3.174  11.909 -0.4949 -2.0216  0.2549
20616SOL    HW263290   5.374   3.195  11.848  0.5696 -1.1831  2.8311
20617SOL     OW63291   7.182   3.027   1.320  0.5053  0.0057  0.2189
20617SOL    HW163292   7.117   3.023   1.391  0.4321 -0.0432  0.1495
20617SOL    HW263293   7.263   3.053   1.364  1.1693 -2.7198  0.8093
20618SOL     OW63294   4.704   3.854   1.559 -0.0556  0.0141 -0.5140
20618SOL    HW163295   4.778   3.798   1.580  1.9607  2.8415  0.5868
20618SOL    HW263296   4.639   3.835   1.626  1.0678 -0.1583  0.5513
20619SOL     OW63297   7.781   5.115   1.684 -0.4794 -0.8731 -0.0787
20619SOL    HW163298   7.848   5.181   1.663 -0.3195 -0.4925  1.5329
20619SOL    HW263299   7.710   5.133   1.623 -0.7283  1.2540  0.7838
20620SOL     OW63300   7.061   5.893   0.324  0.3959 -0.3990 -0.0987
20620SOL    HW163301   6.983   5.852   0.287 -0.8840  1.3714  0.4708
20620SOL    HW263302   7.106   5.823   0.370 -0.3452 -1.6645 -1.2265
20621SOL     OW63303   6.858   4.091  12.289  0.0406 -0.3270  0.0539
20621SOL    HW163304   6.909   4.014  12.265  1.4068  0.5225  0.1002
20621SOL    HW263305   6.919   4.145  12.340 -0.8355  0.8459 -0.1045
20622SOL     OW63306   7.323   3.871   0.516 -0.0454  0.1492  0.1647
20622SOL    HW163307   7.283   3.948   0.556 -1.1688  0.3026 -1.1566
20622SOL    HW263308   7.250   3.823   0.478  0.7307 -1.1501  0.2427
20623SOL     OW63309   7.578   5.047   1.501 -0.2506  0.2298 -0.2447
20623SOL    HW163310   7.606   4.959   1.524 -1.3751 -0.3110 -0.8424
20623SOL    HW263311   7.482   5.042   1.500 -0.3515  1.6475  0.4234
20624SOL     OW63312   5.667   6.190   0.453 -0.1197 -0.1115  0.3325
20624SOL    HW163313   5.605   6.198   0.380 -2.1072 -0.8279  1.8273
20624SOL    HW263314   5.676   6.278   0.487  0.3763  0.1334 -0.3979
20625SOL     OW63315   4.435   3.392  11.473 -0.2426 -0.2191 -0.0664
20625SOL    HW163316   4.471   3.303  11.476  0.0349 -0.0996  0.1887
20625SOL    HW263317   4.348   3.384  11.512 -0.1387 -0.3432  0.1452
20626SOL     OW63318   5.179   6.302   0.257  0.0828  0.2544 -0.1001
20626SOL    HW163319   5.197   6.313   0.350  0.1705 -0.7887  0.0185
20626SOL    HW263320   5.141   6.385   0.230 -1.4102  0.0361  1.2204
20627SOL     OW63321   1.141   3.896   0.532  0.2196 -0.1345  0.3970
20627SOL    HW163322   1.107   3.860   0.450  1.5929 -1.0846  0.2131
20627SOL    HW263323   1.110   3.835   0.600 -0.5795  0.4323  0.5624
20628SOL     OW63324   5.394   4.123  12.439 -0.0879  0.1693  0.0477
20628SOL    HW163325   5.354   4.177  12.371  0.1682  0.8932  0.4630
20628SOL    HW263326   5.323   4.066  12.469 -0.5395  0.7140  0.0430
20629SOL     OW63327   7.827   5.816   2.822 -0.3681  0.1767  0.7959
20629SOL    HW163328   7.764   5.756   2.781 -1.0734 -0.0712  2.2057
20629SOL    HW263329   7.779   5.855   2.896  0.5276  1.4424  0.7471
20630SOL     OW63330   6.513   5.456  12.075  0.3955  0.0037  0.8384
20630SOL    HW163331   6.491   5.378  12.025  0.0378 -0.5454  1.8079
20630SOL    HW263332   6.546   5.518  12.011 -2.3611  0.2536 -0.4788
20631SOL     OW63333   0.864   3.545   2.105  0.3994 -0.0005 -0.2861
20631SOL    HW163334   0.807   3.488   2.053  0.8966 -0.8383  0.0672
20631SOL    HW263335   0.900   3.607   2.041  0.7220 -0.7840 -0.8835
20632SOL     OW63336   5.956   3.281   1.481 -0.7221 -0.3119  0.2882
20632SOL    HW163337   5.871   3.309   1.514 -0.6703  0.4912 -0.2484
20632SOL    HW263338   6.017   3.349   1.511 -0.3757 -0.5391  0.1087
20633SOL     OW63339   5.685   5.851   0.351  0.4669 -0.1833  0.5590
20633SOL    HW163340   5.593   5.878   0.360 -0.8284 -4.4837  2.6117
20633SOL    HW263341   5.733   5.916   0.402 -1.3146  2.1967 -0.5597
20634SOL     OW63342   5.422   6.003   1.124  0.2677  0.4384  0.1928
20634SOL    HW163343   5.456   6.093   1.125 -2.4971  1.6032  0.0424
20634SOL    HW263344   5.487   5.952   1.171  2.4472  2.3057 -0.6142
20635SOL     OW63345   6.959   3.861  12.205 -0.3262  0.2102  0.5810
20635SOL    HW163346   6.961   3.833  12.113  0.3966 -0.3600  0.7635
20635SOL    HW263347   7.021   3.803  12.249 -1.6266 -0.3813  1.6805
20636SOL     OW63348   7.533   4.011  11.651  0.3461 -0.1776 -1.2151
20636SOL    HW163349   7.469   4.064  11.699  1.3145 -0.6519  0.6814
20636SOL    HW263350   7.576   4.074  11.592 -0.5343  0.5203 -1.1435
20637SOL     OW63351   6.294   4.794  12.490 -0.0631  0.0211  0.0050
20637SOL    HW163352   6.234   4.868  12.494 -1.1967 -0.9227  1.0893
20637SOL    HW263353   6.292   4.757  12.578 -0.2838 -1.8881 -0.7605
20638SOL     OW63354   4.723   4.683   0.780 -0.0134 -0.3750 -0.3012
20638SOL    HW163355   4.643   4.716   0.820 -0.5389 -1.5832 -0.3081
20638SOL    HW263356   4.696   4.659   0.691  0.2427 -1.1848 -0.1668
20639SOL     OW63357   5.175   4.599   0.080 -0.9132 -0.3326  0.3189
20639SOL    HW163358   5.207   4.602   0.170 -1.0325  0.7757  0.3318
20639SOL    HW263359   5.124   4.518   0.076  0.3456 -1.1731  0.8038
20640SOL     OW63360   5.324   5.964   2.355 -0.6626  0.1037 -0.1932
20640SOL    HW163361   5.239   6.005   2.340 -0.9602 -0.9434 -1.5119
20640SOL    HW263362   5.314   5.875   2.322  0.4552 -0.5639  1.1348
20641SOL     OW63363   5.498   5.437   3.468  0.0290 -0.0616 -0.2223
20641SOL    HW163364   5.403   5.428   3.462 -0.0434  0.1534  0.4815
20641SOL    HW263365   5.511   5.503   3.536  0.7092 -1.4276  1.0164
20642SOL     OW63366   4.622   5.267   1.145 -0.3597  0.3083  0.0626
20642SOL    HW163367   4.700   5.217   1.119 -1.3953 -0.6614 -1.2784
20642SOL    HW263368   4.625   5.267   1.241  1.9879  1.4498  0.0645
20643SOL     OW63369   5.911   5.470   2.239 -0.1640  0.1907  0.0828
20643SOL    HW163370   5.930   5.563   2.251  0.3627 -0.0661  1.3956
20643SOL    HW263371   5.966   5.443   2.166 -0.6036  0.9830 -0.5599
20644SOL     OW63372   7.591   7.105   3.577 -0.3256 -0.0802  0.1978
20644SOL    HW163373   7.594   7.163   3.653  0.7823 -0.2611  0.2968
20644SOL    HW263374   7.512   7.133   3.530  0.5974  2.0858 -0.2061
20645SOL     OW63375   6.490   3.951   3.268  0.2677  0.2823 -0.5277
20645SOL    HW163376   6.447   3.901   3.338 -0.8860 -0.2829 -1.5998
20645SOL    HW263377   6.583   3.945   3.288 -0.0271 -0.1102  0.8034
20646SOL     OW63378   7.498   5.348   1.981  0.1308 -0.1859 -0.0478
20646SOL    HW163379   7.514   5.407   2.055 -0.8433  0.6242 -0.4564
20646SOL    HW263380   7.548   5.385   1.909  1.2164 -1.0733  0.2289
20647SOL     OW63381   5.994   4.558   3.037  0.2027 -0.0937  0.1916
20647SOL    HW163382   5.939   4.637   3.034 -0.0775 -0.3056 -0.5191
20647SOL    HW263383   5.993   4.525   2.947  1.3315 -0.2206  0.2027
20648SOL     OW63384   6.921   4.274   3.160 -0.2401  0.2361  0.0512
20648SOL    HW163385   6.985   4.204   3.168 -1.8779 -1.6562 -2.2237
20648SOL    HW263386   6.848   4.247   3.216 -0.1231  1.0951  0.6347
20649SOL     OW63387   6.472   5.564   3.579  0.2444 -0.1954  0.1855
20649SOL    HW163388   6.418   5.540   3.654 -0.5411  2.4591  0.5948
20649SOL    HW263389   6.423   5.533   3.503 -1.0482  0.6732  0.6297
20650SOL     OW63390   5.224   5.922   4.515  0.1291  0.1889 -0.0342
20650SOL    HW163391   5.260   5.947   4.430 -1.4319 -0.2427 -0.8752
20650SOL    HW263392   5.136   5.962   4.516  0.4557  0.9813  1.7889
20651SOL     OW63393   5.827   6.437   3.211  0.2803 -0.0082  0.3134
20651SOL    HW163394   5.907   6.485   3.191 -0.4604  1.7573  1.3036
20651SOL    HW263395   5.758   6.487   3.167 -0.4456 -0.6146  0.7391
20652SOL     OW63396   7.709   6.074   4.536 -0.0831  0.5204 -0.1844
20652SOL    HW163397   7.723   6.061   4.630  1.7478 -2.2207 -0.6998
20652SOL    HW263398   7.624   6.033   4.519 -0.6140  1.3894  0.3113
20653SOL     OW63399   6.738   4.511   1.329  0.3123  0.9541 -0.1054
20653SOL    HW163400   6.765   4.588   1.278 -0.9520  0.3580 -1.7603
20653SOL    HW263401   6.643   4.520   1.337  0.2744  0.0726  0.5675
20654SOL     OW63402   5.969   3.963   1.632  0.1456  0.0785 -0.0935
20654SOL    HW163403   5.940   4.051   1.658 -0.4294 -0.4639  1.2053
20654SOL    HW263404   6.064   3.969   1.632  0.1030  1.0525 -1.3353
20655SOL     OW63405   6.434   4.944   1.613 -0.2143 -0.1912 -0.3291
20655SOL    HW163406   6.450   5.037   1.632 -3.1113  1.0731 -3.1126
20655SOL    HW263407   6.347   4.927   1.648  0.4476 -2.0646  0.5297
20656SOL     OW63408   5.515   5.930   3.093 -0.0510  0.6175 -0.1056
20656SOL    HW163409   5.526   5.979   3.174  0.3632 -0.7940  0.7375
20656SOL    HW263410   5.450   5.863   3.114 -0.8425  0.9781 -1.3130
20657SOL     OW63411   5.348   7.207   1.494 -0.3016 -0.6543 -0.5784
20657SOL    HW163412   5.291   7.281   1.516  0.6691  0.2195 -0.9027
20657SOL    HW263413   5.308   7.132   1.537 -0.4214  0.3549  1.1609
20658SOL     OW63414   4.660   4.612   0.512 -0.1397 -0.6337  0.6611
20658SOL    HW163415   4.680   4.679   0.447 -1.1983  0.3829  1.3372
20658SOL    HW263416   4.698   4.532   0.477  1.6316  0.4079  0.0724
20659SOL     OW63417   6.905   7.461   4.006  0.1448 -0.3652  0.2639
20659SOL    HW163418   6.845   7.457   3.931 -0.7068  0.0948  0.8925
20659SOL    HW263419   6.971   7.525   3.981 -0.2205 -0.1051 -0.0411
20660SOL     OW63420   7.071   4.061   0.561 -0.6212 -0.4535 -0.4690
20660SOL    HW163421   7.045   4.050   0.652  1.4772  0.0337  0.2508
20660SOL    HW263422   6.990   4.084   0.515 -1.5171  0.5543  1.5076
20661SOL     OW63423   6.870   3.347   3.927  0.4392  0.2207  0.2082
20661SOL    HW163424   6.912   3.336   4.012  0.8897 -2.9642 -0.2925
20661SOL    HW263425   6.822   3.265   3.913 -1.3880  1.4981 -1.7114
20662SOL     OW63426   5.270   4.991   2.539 -0.0093 -0.0904  0.7974
20662SOL    HW163427   5.175   5.004   2.527  0.2951  0.5663 -1.3202
20662SOL    HW263428   5.307   5.079   2.529  0.7615 -0.1714  2.6683
20663SOL     OW63429   6.834   6.628   2.951  0.4165 -0.3376  0.0581
20663SOL    HW163430   6.927   6.611   2.965  0.4723  0.1022  0.2335
20663SOL    HW263431   6.791   6.546   2.976  0.6633 -0.1594  1.1431
20664SOL     OW63432   5.328   4.049   1.777 -0.1229  0.3975  0.4123
20664SOL    HW163433   5.370   4.134   1.790  0.4055  0.2440 -0.2008
20664SOL    HW263434   5.274   4.061   1.698 -0.0752  0.1768  0.3456
20665SOL     OW63435   7.283   4.456  11.451  0.3315 -0.1796  0.4844
20665SOL    HW163436   7.319   4.505  11.526 -2.3104 -0.0253  1.7686
20665SOL    HW263437   7.256   4.524  11.389 -0.6584 -0.0911  0.9829
20666SOL     OW63438   0.149   5.192   0.997 -0.5354 -0.2640 -0.0268
20666SOL    HW163439   0.244   5.203   1.001 -0.6319  0.6195 -0.0497
20666SOL    HW263440   0.124   5.170   1.087 -0.3610 -0.0691  0.0703
20667SOL     OW63441   5.754   5.711   1.878 -0.1355  0.1484  0.8329
20667SOL    HW163442   5.688   5.680   1.816 -0.5334  0.4888  1.0779
20667SOL    HW263443   5.836   5.672   1.847 -0.3496  0.2051  0.1750
20668SOL     OW63444   7.727   4.378   1.612 -0.2572  0.0718  0.1197
20668SOL    HW163445   7.712   4.387   1.518  0.6432  0.0162 -0.0401
20668SOL    HW263446   7.641   4.358   1.648 -0.1041 -3.4061 -1.1044
20669SOL     OW63447   5.364   5.242   2.523  0.5117 -0.1609 -0.3575
20669SOL    HW163448   5.392   5.314   2.580  1.0621  0.9356 -1.9295
20669SOL    HW263449   5.288   5.277   2.476  0.8678 -0.5468 -1.2373
20670SOL     OW63450   4.696   4.648   2.144 -0.2046 -0.0149 -0.8975
20670SOL    HW163451   4.644   4.571   2.167 -1.9695  1.6791  1.2359
20670SOL    HW263452   4.786   4.616   2.142 -0.8194 -2.0274  0.4448
20671SOL     OW63453   5.987   6.227   3.417  0.2892  0.9950  0.1194
20671SOL    HW163454   5.937   6.296   3.375 -0.2530  1.3533  1.2945
20671SOL    HW263455   5.969   6.149   3.365  0.3530  1.5919 -0.8156
20672SOL     OW63456   7.587   6.267   1.899  0.2931  0.1159  0.5236
20672SOL    HW163457   7.515   6.207   1.879  0.0611  0.1524  1.2138
20672SOL    HW263458   7.652   6.211   1.942  0.2355  0.2807  0.8277
20673SOL     OW63459   7.387   5.504   2.265 -0.0402 -0.0727 -0.1359
20673SOL    HW163460   7.330   5.481   2.192  1.3332  1.0633 -1.6572
20673SOL    HW263461   7.328   5.542   2.330 -1.2944 -1.0385 -0.6585
20674SOL     OW63462   5.402   1.921   3.526 -0.1017 -0.2499 -0.4401
20674SOL    HW163463   5.322   1.970   3.508 -0.5681 -1.1437 -0.8962
20674SOL    HW263464   5.463   1.986   3.561 -0.0428  1.0341 -2.7712
20675SOL     OW63465   6.775   5.987   2.650  0.0586  0.2272 -0.0544
20675SOL    HW163466   6.754   5.921   2.584 -2.4960  1.0830 -0.2266
20675SOL    HW263467   6.741   5.951   2.731  2.7202 -0.5870  0.7865
20676SOL     OW63468   7.061   5.168   1.873 -0.0665 -0.0482  0.9972
20676SOL    HW163469   7.033   5.098   1.814  3.1572  0.0823 -0.9007
20676SOL    HW263470   6.985   5.225   1.880 -1.7674 -2.0458  0.0549
20677SOL     OW63471   5.484   4.255   1.896 -0.0024  0.1048 -0.3431
20677SOL    HW163472   5.436   4.338   1.905 -2.7583 -1.4306  0.0973
20677SOL    HW263473   5.503   4.228   1.985 -1.8952 -1.1734 -0.2639
20678SOL     OW63474   5.248   3.282   3.443  0.1910  0.0359  0.6317
20678SOL    HW163475   5.327   3.300   3.494  0.2990  0.3584  0.3493
20678SOL    HW263476   5.246   3.187   3.434 -0.5623 -0.1708  2.4372
20679SOL     OW63477   7.933   6.371   3.044 -0.3598  0.3368 -0.5437
20679SOL    HW163478   7.903   6.283   3.065 -1.2323  0.9639  0.9835
20679SOL    HW263479   8.008   6.358   2.985 -0.1344 -1.4228  0.0859
20680SOL     OW63480   4.918   2.713   5.798  0.3235  0.2062 -0.3791
20680SOL    HW163481   4.967   2.637   5.830  2.3072  0.8265 -1.7602
20680SOL    HW263482   4.939   2.783   5.859  0.3995  0.2201 -0.4199
20681SOL     OW63483   6.788   4.555   2.597  1.0675 -0.4914  0.0733
20681SOL    HW163484   6.751   4.549   2.509 -0.4909  1.1346  0.5768
20681SOL    HW263485   6.880   4.531   2.585  0.7261 -1.0220 -1.8593
20682SOL     OW63486   6.991   4.792   3.890 -0.0400  0.8682  0.6896
20682SOL    HW163487   7.048   4.811   3.816  0.2783  0.0279  0.7066
20682SOL    HW263488   6.936   4.720   3.860  1.8755 -1.3321  2.1180
20683SOL     OW63489   7.437   4.680   3.098  0.4938 -0.5695  0.3603
20683SOL    HW163490   7.482   4.645   3.020  2.8711  0.4913  1.1518
20683SOL    HW263491   7.392   4.758   3.067 -2.2236 -2.4132 -0.7557
20684SOL     OW63492   1.799   3.991   1.669  0.2587 -0.3561 -0.0063
20684SOL    HW163493   1.810   3.898   1.686  1.1065 -0.3626 -0.5209
20684SOL    HW263494   1.867   4.033   1.722 -0.4636  0.0217  0.6485
20685SOL     OW63495   5.252   4.188   1.571 -0.0997 -0.8579  0.0620
20685SOL    HW163496   5.260   4.281   1.548  1.3399 -0.8866  0.3346
20685SOL    HW263497   5.160   4.167   1.556 -0.4534  0.6201  0.0183
20686SOL     OW63498   4.556   5.267   2.196 -0.3509  0.4091 -0.2850
20686SOL    HW163499   4.624   5.232   2.253 -1.8421 -0.3130  1.1172
20686SOL    HW263500   4.473   5.236   2.233 -1.4111 -0.7318 -3.2310
20687SOL     OW63501   6.168   4.861   2.988 -0.6972  0.2099  0.0818
20687SOL    HW163502   6.095   4.864   2.926  0.1860  1.5133 -0.9484
20687SOL    HW263503   6.236   4.811   2.942 -0.4360  0.2335  0.4433
20688SOL     OW63504   5.549   3.665   3.679  0.5039 -0.1757  0.1176
20688SOL    HW163505   5.605   3.615   3.739 -1.0740 -0.3111  1.5791
20688SOL    HW263506   5.483   3.705   3.736  0.1574  1.4448 -1.3261
20689SOL     OW63507   7.706   5.796   1.866 -0.4029  0.2460  0.2826
20689SOL    HW163508   7.735   5.734   1.933 -1.8312 -0.4408  0.3195
20689SOL    HW263509   7.712   5.748   1.784  0.2884  0.7123  0.0545
20690SOL     OW63510   6.427   4.512   2.529 -0.0809 -0.0994 -0.3000
20690SOL    HW163511   6.338   4.535   2.503 -0.4604  0.1275  1.1134
20690SOL    HW263512   6.419   4.426   2.570  0.3008  0.0288  0.0558
20691SOL     OW63513   5.603   6.825   2.116 -0.0729 -0.3268 -0.4209
20691SOL    HW163514   5.550   6.772   2.056 -0.0012  0.6422 -1.3481
20691SOL    HW263515   5.681   6.848   2.066  0.4965 -0.4091  0.4102
20692SOL     OW63516   5.508   6.358   1.382 -0.0987  0.3479  0.4000
20692SOL    HW163517   5.540   6.320   1.464  1.6570  0.7991 -0.0349
20692SOL    HW263518   5.559   6.439   1.372  0.3460 -0.1402 -1.5524
20693SOL     OW63519   0.028   5.110   2.463 -0.1057 -0.1594 -0.0128
20693SOL    HW163520   0.037   5.065   2.379 -0.1628  0.3458 -0.2977
20693SOL    HW263521   0.060   5.199   2.446 -3.0523  0.9315 -0.3772
20694SOL     OW63522   7.026   4.446   2.590 -0.3298  0.3851 -0.0476
20694SOL    HW163523   7.060   4.374   2.536  0.0806  0.2899  0.3340
20694SOL    HW263524   7.012   4.407   2.676  0.8052  0.9760  0.4235
20695SOL     OW63525   5.793   5.304   2.009 -0.2648  0.5644 -0.0289
20695SOL    HW163526   5.726   5.251   1.965  0.0469  0.1728 -0.0374
20695SOL    HW263527   5.744   5.358   2.071 -0.5808  0.2178  0.0249
20696SOL     OW63528   5.956   5.746   3.012 -0.9828 -0.2295  0.2174
20696SOL    HW163529   5.865   5.761   2.986 -0.9387  0.7367  0.5615
20696SOL    HW263530   5.974   5.656   2.987 -1.9123 -0.3045 -0.2188
20697SOL     OW63531   6.853   5.438   2.932  0.2434 -0.3369  0.4549
20697SOL    HW163532   6.815   5.367   2.880  3.0592 -0.7772 -1.2083
20697SOL    HW263533   6.899   5.393   3.003  0.6546 -0.0866  0.3527
20698SOL     OW63534   6.195   5.509   2.559  0.4189  0.3362 -0.1516
20698SOL    HW163535   6.149   5.552   2.486 -0.8471 -0.3540  0.2081
20698SOL    HW263536   6.282   5.492   2.525  0.1165  0.7852 -1.2170
20699SOL     OW63537   6.186   4.166   3.778 -0.4092  0.9956  0.1446
20699SOL    HW163538   6.124   4.168   3.851  0.1032 -0.6807  0.6797
20699SOL    HW263539   6.163   4.087   3.729 -0.0637  1.5263 -0.9068
20700SOL     OW63540   6.989   4.234   0.182 -0.3379  0.0177 -0.3488
20700SOL    HW163541   6.910   4.267   0.225  0.1699 -0.3260  0.9107
20700SOL    HW263542   6.979   4.258   0.090 -1.2604  1.2058  0.0351
20701SOL     OW63543   6.395   5.486   1.488  0.8224 -0.8805 -0.3422
20701SOL    HW163544   6.408   5.432   1.566 -0.5751  1.3445  1.5546
20701SOL    HW263545   6.484   5.501   1.455  1.3830 -2.5713  0.2619
20702SOL     OW63546   7.577   3.558   0.859 -0.3940  0.1746 -0.1839
20702SOL    HW163547   7.597   3.502   0.784  0.9940 -0.5106  0.6736
20702SOL    HW263548   7.582   3.647   0.823  0.0880 -0.1475 -0.9492
20703SOL     OW63549   5.492   7.171   2.905  0.2919  0.2128 -0.4099
20703SOL    HW163550   5.400   7.166   2.882  0.2351  2.0688 -0.7252
20703SOL    HW263551   5.538   7.131   2.831 -0.2450 -0.5575 -0.3302
20704SOL     OW63552   0.207   7.027   4.463  0.2566 -0.3782 -0.6703
20704SOL    HW163553   0.207   7.068   4.376  1.5947  1.9144  0.3126
20704SOL    HW263554   0.196   6.934   4.445  0.4740  0.0092 -3.3001
20705SOL     OW63555   5.814   5.532   2.613 -0.2353  0.0810 -0.2966
20705SOL    HW163556   5.838   5.476   2.687 -0.3994  0.2253 -0.1324
20705SOL    HW263557   5.811   5.473   2.538  2.7658  0.4083 -0.7787
20706SOL     OW63558   6.954   2.645  12.408 -0.2309 -0.0243  0.1670
20706SOL    HW163559   6.893   2.710  12.375  0.4475  0.1420 -0.7844
20706SOL    HW263560   6.903   2.594  12.472 -0.8647  1.1823  0.6415
20707SOL     OW63561   6.007   2.797   1.268 -0.0392 -0.1001 -0.2227
20707SOL    HW163562   5.990   2.889   1.287 -2.2396 -1.1079  3.9224
20707SOL    HW263563   6.079   2.773   1.325  1.5608 -0.7331 -2.3841
20708SOL     OW63564   5.996   3.480   4.620  0.1225 -0.3267 -0.3529
20708SOL    HW163565   6.083   3.452   4.646 -0.0646  0.0323  0.7071
20708SOL    HW263566   6.000   3.484   4.524  0.7462 -1.9423 -0.4275
20709SOL     OW63567   7.700   6.751   2.640 -0.0560 -0.1783  0.6022
20709SOL    HW163568   7.708   6.661   2.608  0.7151 -0.2041  0.8331
20709SOL    HW263569   7.764   6.756   2.711 -0.5477  0.3693  1.0141
20710SOL     OW63570   5.871   4.768   2.650  0.1829  0.2155 -0.1752
20710SOL    HW163571   5.927   4.704   2.694  0.6667  0.0144 -1.0461
20710SOL    HW263572   5.785   4.727   2.646  0.5707 -0.5605 -1.0463
20711SOL     OW63573   7.209   4.640   4.012  0.3540 -0.2895  0.1586
20711SOL    HW163574   7.190   4.565   4.069  0.3641  0.0316  0.5971
20711SOL    HW263575   7.123   4.680   3.995  0.2639 -0.8312 -0.6909
20712SOL     OW63576   4.912   3.087   2.851 -0.0837 -0.0111 -0.5337
20712SOL    HW163577   4.847   3.054   2.913  2.3765  0.9208  2.8303
20712SOL    HW263578   4.933   3.175   2.883  3.3068 -0.5421 -0.9367
20713SOL     OW63579   5.371   4.532   2.020 -0.2656  0.1018  0.1755
20713SOL    HW163580   5.388   4.588   1.945 -0.7902 -0.8313 -0.6593
20713SOL    HW263581   5.286   4.492   2.002  0.1145 -0.9919  0.7380
20714SOL     OW63582   6.860   5.809   1.569 -0.3422 -0.6906 -0.1034
20714SOL    HW163583   6.785   5.792   1.512 -0.0974 -0.1001 -0.6163
20714SOL    HW263584   6.898   5.723   1.586 -0.5222 -0.8893 -0.6946
20715SOL     OW63585   5.577   3.959   1.837  0.0419  0.1967  0.5503
20715SOL    HW163586   5.562   3.966   1.932 -1.0700  1.8548  0.3014
20715SOL    HW263587   5.494   3.985   1.798 -0.1551 -2.3242 -0.9293
20716SOL     OW63588   5.127   2.948   0.541 -0.1709  0.3501 -0.5991
20716SOL    HW163589   5.062   2.958   0.471 -0.3204 -0.8056 -0.6328
20716SOL    HW263590   5.202   2.999   0.510 -0.2928 -0.0183 -1.5452
20717SOL     OW63591   6.885   3.953   3.639  0.1576  0.3527 -0.2059
20717SOL    HW163592   6.886   3.922   3.729  1.4257  2.2221  0.4961
20717SOL    HW263593   6.827   4.030   3.641  1.6516  1.5309 -0.5203
20718SOL     OW63594   6.861   5.863   1.253 -0.3765 -0.2709  0.3949
20718SOL    HW163595   6.913   5.783   1.258  0.1792 -0.1179 -1.8921
20718SOL    HW263596   6.803   5.849   1.179 -1.4869  0.7989  1.0165
20719SOL     OW63597   6.055   5.984   5.226  0.0734  0.0470 -0.5058
20719SOL    HW163598   6.077   5.986   5.319 -0.1625  1.9219 -0.4445
20719SOL    HW263599   5.972   6.032   5.220 -0.1457 -0.4376 -1.6333
20720SOL     OW63600   7.743   5.820   2.267 -0.0859  0.3334 -0.0152
20720SOL    HW163601   7.747   5.904   2.223  0.9446 -0.1935 -0.9510
20720SOL    HW263602   7.809   5.825   2.336  0.0071  0.2675 -0.1005
20721SOL     OW63603   6.597   3.297   1.609  0.1771 -0.2562  0.1892
20721SOL    HW163604   6.606   3.267   1.519  0.0605 -1.2443  0.4924
20721SOL    HW263605   6.587   3.392   1.602  0.3642 -0.2978 -0.8183
20722SOL     OW63606   6.155   4.477   3.228  0.1901 -0.0637  0.5384
20722SOL    HW163607   6.099   4.497   3.153 -1.5124 -3.2113  0.7747
20722SOL    HW263608   6.114   4.523   3.301 -0.5443 -0.1996  0.2222
20723SOL     OW63609   5.440   3.894   3.107 -0.4979  0.3389  0.6824
20723SOL    HW163610   5.527   3.932   3.094 -0.2890 -1.0327 -3.1638
20723SOL    HW263611   5.380   3.956   3.065 -0.6675 -1.1878 -1.4833
20724SOL     OW63612   4.528   3.057   1.438 -0.0620  0.4216  0.1730
20724SOL    HW163613   4.529   3.141   1.484 -0.6867 -0.0735  1.1320
20724SOL    HW263614   4.465   3.004   1.486 -0.2311 -0.3593 -0.8627
20725SOL     OW63615   4.346   3.293   2.324 -0.6442 -0.3939 -0.3294
20725SOL    HW163616   4.339   3.217   2.383  2.0674 -0.7284 -0.3523
20725SOL    HW263617   4.312   3.260   2.240 -0.2820 -1.3291 -0.1244
20726SOL     OW63618   7.203   3.715   0.767 -0.1339 -0.2734  0.2466
20726SOL    HW163619   7.232   3.636   0.811 -0.0510  0.3954  1.4237
20726SOL    HW263620   7.174   3.773   0.837 -0.3526  0.6798 -0.6041
20727SOL     OW63621   6.291   5.716   2.763  0.6729 -0.1900  0.3280
20727SOL    HW163622   6.243   5.634   2.773 -1.0542  0.8643  1.1844
20727SOL    HW263623   6.351   5.718   2.838 -0.9859  0.3840  1.7008
20728SOL     OW63624   0.014   4.372   3.204 -0.1136 -0.2296 -0.2565
20728SOL    HW163625   0.070   4.367   3.126  0.8998 -2.3403  0.5295
20728SOL    HW263626   0.068   4.419   3.268  0.3051 -1.1793  0.1078
20729SOL     OW63627   6.863   4.822  12.383 -0.1210  0.8708 -0.0236
20729SOL    HW163628   6.795   4.759  12.407  0.9594 -0.4436 -0.2755
20729SOL    HW263629   6.901   4.850  12.466 -0.5811  1.1756  0.0878
20730SOL     OW63630   6.329   4.679   3.471 -0.0300  0.3610 -0.2445
20730SOL    HW163631   6.268   4.611   3.500  0.2734  0.5085  0.7749
20730SOL    HW263632   6.276   4.736   3.415 -0.6541  0.0937  0.0586
20731SOL     OW63633   7.097   4.831   0.765 -0.2941  0.7230  0.7677
20731SOL    HW163634   7.030   4.840   0.697  0.7002  1.8443 -0.1007
20731SOL    HW263635   7.150   4.910   0.757  2.3152 -0.9639  0.1496
20732SOL     OW63636   6.908   4.034   2.769  0.3347  0.4094 -0.5742
20732SOL    HW163637   6.939   4.057   2.857  1.0590  0.6298 -0.8786
20732SOL    HW263638   6.842   3.966   2.784 -0.5492  1.4081  0.2182
20733SOL     OW63639   7.695   5.914   3.454  0.2032 -0.3447  0.5619
20733SOL    HW163640   7.683   5.854   3.381  0.5590 -0.5453  0.6645
20733SOL    HW263641   7.746   5.864   3.518  0.0315 -0.1180  0.8789
20734SOL     OW63642   5.955   6.959   4.131 -0.3737  0.9324  0.7897
20734SOL    HW163643   6.013   7.032   4.112 -1.9208  1.9947 -0.0599
20734SOL    HW263644   5.910   6.985   4.212 -0.4443  0.6085  0.8565
20735SOL     OW63645   1.305   5.137   3.384  0.0365 -0.0184 -0.4599
20735SOL    HW163646   1.366   5.174   3.448  0.2973 -2.7492  0.9826
20735SOL    HW263647   1.220   5.174   3.408  0.6417  1.6742 -0.7825
20736SOL     OW63648   7.947   7.944   2.341  0.3285  0.3086 -0.3197
20736SOL    HW163649   7.921   8.027   2.383 -0.0347 -1.1576  2.6738
20736SOL    HW263650   8.041   7.937   2.359  1.1160  1.4986 -3.4465
20737SOL     OW63651   6.959   4.350   1.095  0.0076 -0.1976  0.3824
20737SOL    HW163652   6.909   4.295   1.154 -0.2187  0.0338  0.4084
20737SOL    HW263653   6.898   4.419   1.069  0.5468  0.5543  1.0516
20738SOL     OW63654   6.099   3.620   2.065  0.4175  0.1057  0.6310
20738SOL    HW163655   6.126   3.708   2.038  1.0868 -0.0583  0.7446
20738SOL    HW263656   6.124   3.564   1.992  0.2486 -0.0332  0.6792
20739SOL     OW63657   6.518   2.808   4.092 -0.8093 -0.2450  0.8881
20739SOL    HW163658   6.473   2.853   4.021  3.5973  1.2050 -1.3612
20739SOL    HW263659   6.529   2.876   4.159 -1.1662 -0.3369  1.0409
20740SOL     OW63660   7.426   4.344   0.337 -0.3025 -0.0903 -0.9405
20740SOL    HW163661   7.338   4.371   0.312 -0.6728 -0.6860 -0.3249
20740SOL    HW263662   7.471   4.330   0.253 -1.8540 -3.1688 -1.4392
20741SOL     OW63663   5.509   4.842   0.912 -0.4621 -0.2252  0.3837
20741SOL    HW163664   5.547   4.930   0.904  0.3129 -0.6348 -0.7328
20741SOL    HW263665   5.575   4.784   0.874 -1.1392 -1.2505  0.7382
20742SOL     OW63666   7.273   3.760   2.613  0.7045 -0.6963  0.2618
20742SOL    HW163667   7.360   3.799   2.619  0.2713  0.9059 -2.1548
20742SOL    HW263668   7.213   3.834   2.619 -0.6671 -1.9144  3.4170
20743SOL     OW63669   5.114   4.932   2.258 -0.2927  0.4727  0.0781
20743SOL    HW163670   5.100   4.987   2.335 -0.0036 -0.1187  0.5604
20743SOL    HW263671   5.101   4.843   2.290  2.5333 -0.0117  0.1110
20744SOL     OW63672   5.927   5.084   1.755 -0.0844  0.4033  0.3071
20744SOL    HW163673   5.847   5.089   1.806 -0.3020  0.1298 -0.0059
20744SOL    HW263674   5.899   5.091   1.664  0.2585  0.4337  0.1994
20745SOL     OW63675   4.781   4.995   2.128 -0.3668  0.0862  0.1563
20745SOL    HW163676   4.823   4.929   2.073 -0.4536  1.4692 -1.6765
20745SOL    HW263677   4.704   4.951   2.165  0.6608 -1.3867  0.6116
20746SOL     OW63678   7.107   5.873   2.186  0.3684  0.4573 -0.5560
20746SOL    HW163679   7.014   5.850   2.177  0.6992 -0.6175 -1.4012
20746SOL    HW263680   7.122   5.876   2.280 -0.7715  1.7147 -0.3802
20747SOL     OW63681   5.966   6.284   2.618  0.3343  0.8183 -0.0836
20747SOL    HW163682   6.057   6.261   2.600  0.0459  0.9461 -1.8781
20747SOL    HW263683   5.926   6.203   2.647  0.1604 -0.2527 -2.9831
20748SOL     OW63684   7.829   4.943   1.192  0.0139 -0.0927 -0.1314
20748SOL    HW163685   7.858   4.974   1.106  0.2310  1.0605  0.3340
20748SOL    HW263686   7.755   4.999   1.214 -0.8800 -1.2465 -0.1204
20749SOL     OW63687   5.783   6.029   2.934  0.4691  0.4194  0.1915
20749SOL    HW163688   5.710   5.975   2.903  0.6236  0.5960 -0.5087
20749SOL    HW263689   5.746   6.081   3.006  0.7108 -1.6794  1.9027
20750SOL     OW63690   5.638   3.579   1.880 -0.2540  0.1746 -0.2545
20750SOL    HW163691   5.660   3.511   1.943 -1.7508 -0.6039 -0.5236
20750SOL    HW263692   5.677   3.659   1.916  2.1978 -0.9035 -0.3217
20751SOL     OW63693   6.580   4.262   3.191 -0.8779  0.3492 -0.0381
20751SOL    HW163694   6.595   4.170   3.214 -1.9556  0.0196 -0.5876
20751SOL    HW263695   6.642   4.311   3.246 -1.7228 -0.5579  1.8194
20752SOL     OW63696   7.145   4.431   3.121 -0.1277 -0.0078 -0.1089
20752SOL    HW163697   7.138   4.475   3.205 -0.7913  1.4903 -0.9062
20752SOL    HW263698   7.076   4.364   3.122  0.9491 -1.1533  1.1496
20753SOL     OW63699   5.270   4.029   2.218 -0.3397 -0.3197  0.3709
20753SOL    HW163700   5.254   3.976   2.140  0.2742  0.0007  0.0145
20753SOL    HW263701   5.197   4.010   2.276 -0.0617 -1.6811  0.3159
20754SOL     OW63702   6.303   3.834   2.529  0.1085  0.2423  0.4581
20754SOL    HW163703   6.327   3.913   2.481  1.3464 -0.1813  0.3502
20754SOL    HW263704   6.230   3.797   2.479  0.3618  0.6399 -0.2153
20755SOL     OW63705   7.210   5.429   3.298 -0.3127  0.2598 -0.3589
20755SOL    HW163706   7.228   5.354   3.355 -1.3213  0.1298 -0.1953
20755SOL    HW263707   7.115   5.424   3.281 -0.4475  1.6712 -0.1017
20756SOL     OW63708   0.327   3.806   2.016  0.5477 -0.0529 -0.1659
20756SOL    HW163709   0.292   3.724   1.980  0.1320  1.0935 -2.6149
20756SOL    HW263710   0.279   3.819   2.098 -1.0532 -1.1129 -0.8916
20757SOL     OW63711   4.960   3.653   2.712  0.2054 -0.0472  0.1520
20757SOL    HW163712   4.882   3.614   2.753  0.2397  2.3750  2.9179
20757SOL    HW263713   4.937   3.661   2.620 -2.0667 -1.1428  0.5370
20758SOL     OW63714   4.843   3.307   3.975 -0.2736 -0.2553 -0.0287
20758SOL    HW163715   4.862   3.298   4.068 -2.2446 -0.2592  0.4101
20758SOL    HW263716   4.846   3.218   3.941  0.9812 -0.2011 -0.1127
20759SOL     OW63717   6.724   5.303   2.241  0.4790 -0.2407  0.3480
20759SOL    HW163718   6.683   5.384   2.212  0.1025 -0.1936  1.0041
20759SOL    HW263719   6.800   5.331   2.292 -0.7723 -0.2237  2.3003
20760SOL     OW63720   5.947   4.284   3.926 -0.1893  0.4753 -0.3214
20760SOL    HW163721   5.908   4.198   3.915 -2.6152  1.8013 -4.1481
20760SOL    HW263722   5.933   4.305   4.018 -0.0160 -2.8869  0.6134
20761SOL     OW63723   5.381   4.305   3.200  0.1063 -0.4839  0.5677
20761SOL    HW163724   5.382   4.344   3.288 -0.4354 -0.1184  0.4157
20761SOL    HW263725   5.404   4.377   3.141 -1.6683 -0.1737  0.2098
20762SOL     OW63726   0.580   4.142   0.787 -0.5553  0.3040  0.1759
20762SOL    HW163727   0.609   4.070   0.843 -0.7370  0.1099  0.0207
20762SOL    HW263728   0.494   4.115   0.755 -1.1640  1.1241  1.0765
20763SOL     OW63729   5.706   3.563   2.766 -0.1068 -0.0283  0.0739
20763SOL    HW163730   5.744   3.501   2.703  0.3523  0.7782 -0.4570
20763SOL    HW263731   5.612   3.557   2.753 -0.1562 -1.5467  0.9180
20764SOL     OW63732   6.082   4.623   4.053  0.1509  0.1667  0.1303
20764SOL    HW163733   6.111   4.713   4.033  0.1528  0.4109  1.1806
20764SOL    HW263734   6.030   4.598   3.977  0.9205  0.7062 -0.6033
20765SOL     OW63735   6.207   6.303   3.565  0.3511  0.3179 -0.7208
20765SOL    HW163736   6.134   6.262   3.520  0.4417 -0.3859 -0.2362
20765SOL    HW263737   6.184   6.396   3.569 -1.1148 -0.0515  0.5301
20766SOL     OW63738   5.145   4.458   3.092  0.2167  0.0471  0.2466
20766SOL    HW163739   5.193   4.420   3.166 -0.4368 -0.2669  0.5235
20766SOL    HW263740   5.193   4.538   3.071  0.2618  0.2921  1.1948
20767SOL     OW63741   7.857   4.087   1.622 -0.0841  0.1556  0.0251
20767SOL    HW163742   7.780   4.144   1.628 -0.3569 -0.1249 -0.6950
20767SOL    HW263743   7.822   3.999   1.633  0.3520  0.1173  1.2370
20768SOL     OW63744   6.499   5.067   0.988 -0.7826  0.0068 -0.3961
20768SOL    HW163745   6.513   5.094   1.079 -2.4964 -0.0929 -0.0643
20768SOL    HW263746   6.542   5.134   0.936 -2.5258  1.9069  0.4580
20769SOL     OW63747   5.984   3.717   3.693 -0.5456 -0.7763 -0.5399
20769SOL    HW163748   5.904   3.770   3.685 -0.6690 -1.1968 -2.4478
20769SOL    HW263749   6.050   3.779   3.725 -1.3345 -0.1392 -0.1006
20770SOL     OW63750   7.283   5.251   3.726 -0.2994  0.0338 -0.1922
20770SOL    HW163751   7.275   5.223   3.635  0.1279 -1.3736  0.1870
20770SOL    HW263752   7.274   5.347   3.723 -1.2762 -0.0868 -1.5841
20771SOL     OW63753   6.670   4.956   2.229  0.3119 -0.0367 -0.3514
20771SOL    HW163754   6.666   5.052   2.223  2.2823  0.1003 -0.3753
20771SOL    HW263755   6.759   4.939   2.261 -0.3498 -1.8338  0.6569
20772SOL     OW63756   0.603   4.564   4.043  0.4245  0.5613  0.2028
20772SOL    HW163757   0.517   4.525   4.057  0.6574  0.5946  1.9599
20772SOL    HW263758   0.642   4.567   4.130  1.8582  1.3679 -0.4371
20773SOL     OW63759   5.638   4.679   4.107  0.1277 -0.2446 -0.1315
20773SOL    HW163760   5.706   4.746   4.112 -0.0755  0.1174 -1.6472
20773SOL    HW263761   5.662   4.626   4.031  0.0848 -1.6897  0.8281
20774SOL     OW63762   5.274   6.383   2.289 -0.1433 -0.3940 -0.2653
20774SOL    HW163763   5.296   6.381   2.196  2.1680 -1.2155  0.2466
20774SOL    HW263764   5.334   6.320   2.330  1.7648  2.8035  2.3494
20775SOL     OW63765   5.527   7.159   0.805  0.8438  0.0648 -0.2395
20775SOL    HW163766   5.585   7.087   0.781  0.6903 -0.6960  1.4808
20775SOL    HW263767   5.584   7.220   0.853  0.6354  0.2870 -0.2722
20776SOL     OW63768   6.253   6.558   2.107  0.4189 -0.4583  0.1331
20776SOL    HW163769   6.171   6.607   2.097 -0.5516 -2.2528 -1.1139
20776SOL    HW263770   6.279   6.574   2.198 -1.1297  0.4232  0.4625
20777SOL     OW63771   7.055   5.077   3.783  0.2327 -0.1036 -0.1157
20777SOL    HW163772   7.127   5.111   3.836  0.3752  0.3940 -0.6158
20777SOL    HW263773   6.987   5.055   3.846  0.8403 -0.6314  0.3658
20778SOL     OW63774   7.149   3.642   0.481 -0.1151  0.6208 -0.4539
20778SOL    HW163775   7.155   3.549   0.460 -1.9498  0.4369 -0.3020
20778SOL    HW263776   7.151   3.645   0.577 -0.2582  0.7179 -0.4538
20779SOL     OW63777   6.143   3.882   1.990  0.4923 -0.5768 -0.5544
20779SOL    HW163778   6.238   3.892   1.985  0.5945 -1.0402  0.2480
20779SOL    HW263779   6.110   3.972   1.999  1.0205 -0.5179  1.3453
20780SOL     OW63780   6.473   5.866   3.163  0.0804  0.2587 -0.7100
20780SOL    HW163781   6.463   5.957   3.192  2.6092  0.3196  0.2026
20780SOL    HW263782   6.387   5.842   3.128 -0.8034  2.8022 -0.4496
20781SOL     OW63783   6.840   4.793   2.680 -0.1303 -0.2161 -0.1679
20781SOL    HW163784   6.781   4.792   2.756 -0.6303  1.0365 -0.5190
20781SOL    HW263785   6.837   4.703   2.647 -0.1976 -0.6918  1.0617
20782SOL     OW63786   0.239   4.331   1.707 -0.0335 -0.2149 -0.1346
20782SOL    HW163787   0.167   4.281   1.667  2.0219 -2.9973 -0.6609
20782SOL    HW263788   0.291   4.265   1.752  3.3791  1.2580 -1.5775
20783SOL     OW63789   5.630   5.102   3.194  0.9545  0.1653 -0.1332
20783SOL    HW163790   5.638   5.010   3.222  0.9182  0.0227 -0.5770
20783SOL    HW263791   5.653   5.153   3.272 -1.1692 -0.1911  0.8013
20784SOL     OW63792   4.914   4.498   2.104  0.1086  0.2452  0.4868
20784SOL    HW163793   4.880   4.410   2.119  1.2040 -0.5700 -1.5670
20784SOL    HW263794   5.003   4.485   2.071  0.1597  2.1070 -0.2153
20785SOL     OW63795   6.221   4.476   2.821 -0.0918 -0.3669  0.1864
20785SOL    HW163796   6.257   4.561   2.798  0.3709 -1.2394 -2.6433
20785SOL    HW263797   6.295   4.427   2.856  0.6117 -0.8063 -1.7875
20786SOL     OW63798   5.640   4.684   0.758  0.5697  0.4114  0.2667
20786SOL    HW163799   5.632   4.588   0.759  3.2394  0.0691 -0.9484
20786SOL    HW263800   5.608   4.709   0.671 -0.5886  0.7088  0.7665
20787SOL     OW63801   6.559   4.176   2.371 -0.5245 -0.2812  0.1646
20787SOL    HW163802   6.634   4.169   2.430 -1.2602  0.6623  1.2620
20787SOL    HW263803   6.587   4.238   2.304 -0.5648  0.6499  0.9925
20788SOL     OW63804   6.779   4.527   3.069 -0.1529 -0.4180  0.0027
20788SOL    HW163805   6.761   4.549   3.161  1.7683 -0.2036  0.3743
20788SOL    HW263806   6.862   4.478   3.072 -0.4132 -1.0124 -1.5575
20789SOL     OW63807   1.123   4.150   2.432  0.6618  0.0406 -0.1809
20789SOL    HW163808   1.069   4.174   2.507 -0.0367  0.2252 -0.7383
20789SOL    HW263809   1.116   4.054   2.427 -1.8887  0.2243 -1.8945
20790SOL     OW63810   6.993   5.139   2.210 -0.1293 -0.1613 -0.5610
20790SOL    HW163811   6.974   5.090   2.290  0.8489 -0.4062 -0.4648
20790SOL    HW263812   6.946   5.222   2.222 -1.0527 -0.7047 -0.3230
20791SOL     OW63813   5.478   5.643   1.795  0.3042  0.0490  0.9998
20791SOL    HW163814   5.500   5.568   1.739 -0.2872  0.2449  0.4973
20791SOL    HW263815   5.383   5.651   1.788  0.3065  0.5342  1.4578
20792SOL     OW63816   6.347   6.224   2.737  0.0440 -0.7879 -0.1574
20792SOL    HW163817   6.316   6.135   2.721 -0.6999 -0.3650 -1.1571
20792SOL    HW263818   6.301   6.278   2.672 -1.8713  0.7926  2.2990
20793SOL     OW63819   5.279   5.765   4.036 -0.3575 -0.2122  0.5007
20793SOL    HW163820   5.259   5.720   3.954  0.2828  1.1548 -0.4447
20793SOL    HW263821   5.200   5.753   4.089 -0.8093 -1.0779 -0.3267
20794SOL     OW63822   6.339   6.548   2.391  0.1263 -0.3396  0.5721
20794SOL    HW163823   6.435   6.538   2.386  0.1367 -0.2384  0.5639
20794SOL    HW263824   6.326   6.616   2.458  0.0831  0.0663  0.1560
20795SOL     OW63825   6.058   5.950   2.394  0.1398 -0.1492 -0.0701
20795SOL    HW163826   6.059   5.893   2.471  0.1127 -0.0928 -0.0279
20795SOL    HW263827   5.972   5.935   2.355  0.2871 -0.4459 -0.2901
20796SOL     OW63828   6.349   5.410   2.783 -0.1730  0.6348 -0.2398
20796SOL    HW163829   6.267   5.404   2.733  0.4127  0.5177 -1.1982
20796SOL    HW263830   6.417   5.425   2.717  0.7252 -0.3355  0.4432
20797SOL     OW63831   6.337   5.502   0.747  0.3764 -0.0152  0.7523
20797SOL    HW163832   6.408   5.479   0.807  0.5476 -0.3702  0.4233
20797SOL    HW263833   6.303   5.417   0.718 -0.6133  0.1435  1.4057
20798SOL     OW63834   6.748   5.222   4.298  0.3885  0.0457  0.1705
20798SOL    HW163835   6.653   5.216   4.299  0.3815 -0.0931  1.8352
20798SOL    HW263836   6.778   5.131   4.295  0.5135  0.1176 -2.0967
20799SOL     OW63837   6.436   5.148   0.613 -0.5811  0.1126 -0.6248
20799SOL    HW163838   6.414   5.061   0.646 -1.0809 -0.3303 -2.0661
20799SOL    HW263839   6.351   5.188   0.594 -0.3217  0.5707 -0.8334
20800SOL     OW63840   0.342   7.160   2.315  0.3210 -0.2526  0.2292
20800SOL    HW163841   0.355   7.195   2.403  0.4366 -2.0775  0.9806
20800SOL    HW263842   0.342   7.065   2.326  0.1086 -0.5321 -1.7165
20801SOL     OW63843   7.268   5.206   2.303 -0.1303  0.1002 -0.0740
20801SOL    HW163844   7.202   5.188   2.236 -1.2006 -0.0185  0.9969
20801SOL    HW263845   7.304   5.292   2.278 -0.6494  0.1450 -0.6908
20802SOL     OW63846   5.722   3.492   2.438 -0.2579 -0.3198  0.3088
20802SOL    HW163847   5.697   3.584   2.442 -0.1348 -0.2153 -0.8612
20802SOL    HW263848   5.783   3.487   2.364 -0.0816 -1.2993  0.5059
20803SOL     OW63849   7.885   5.370   1.881 -0.3733  0.1034 -0.3685
20803SOL    HW163850   7.801   5.412   1.865  0.8045  2.8376  0.1478
20803SOL    HW263851   7.925   5.362   1.794 -0.2868  0.8367 -0.4036
20804SOL     OW63852   6.730   5.187   1.450  0.0064  0.2208 -0.1470
20804SOL    HW163853   6.771   5.217   1.531  2.0054 -1.6746 -0.3847
20804SOL    HW263854   6.799   5.140   1.404 -1.8855 -1.2949 -1.5867
20805SOL     OW63855   7.533   6.834   2.398  0.0273  0.8875  0.1649
20805SOL    HW163856   7.615   6.787   2.380 -0.5256 -0.7871  1.7209
20805SOL    HW263857   7.479   6.818   2.321  0.7322  1.0265 -0.3698
20806SOL     OW63858   5.822   6.102   1.384 -0.1101 -0.3637 -0.5541
20806SOL    HW163859   5.915   6.111   1.406 -0.5397  2.3524  0.5950
20806SOL    HW263860   5.782   6.062   1.462 -0.4277  2.0823  0.6289
20807SOL     OW63861   7.044   6.023   3.406 -0.0829  0.2089  0.0885
20807SOL    HW163862   7.068   6.083   3.476  2.8289 -0.3270 -0.3171
20807SOL    HW263863   7.051   6.076   3.326 -2.5995  0.6047  0.0506
20808SOL     OW63864   6.904   3.680   3.534 -0.0594 -0.1417 -0.1004
20808SOL    HW163865   6.892   3.769   3.567  0.8947  0.4706 -1.2870
20808SOL    HW263866   6.949   3.634   3.604 -0.1436  0.4504  0.3513
20809SOL     OW63867   5.707   4.993   3.477  0.4993 -0.2782  0.3456
20809SOL    HW163868   5.735   5.083   3.490  1.0241 -0.6456  2.0850
20809SOL    HW263869   5.788   4.942   3.482  0.6329 -0.7028 -3.3389
20810SOL     OW63870   6.278   4.667   2.070 -0.3322 -0.1104  0.8191
20810SOL    HW163871   6.313   4.657   1.982 -1.2420  1.6960  0.1954
20810SOL    HW263872   6.300   4.585   2.115 -1.1868 -1.7346 -1.5423
20811SOL     OW63873   7.138   4.719   3.524  0.0277 -0.4851  0.6329
20811SOL    HW163874   7.065   4.741   3.467  0.0360 -2.1396 -0.0871
20811SOL    HW263875   7.198   4.670   3.468  1.8922  1.1461  1.1105
20812SOL     OW63876   6.798   7.234   1.337 -0.4022  0.1049 -1.1635
20812SOL    HW163877   6.726   7.206   1.393  0.4607 -0.3604 -0.2558
20812SOL    HW263878   6.817   7.157   1.282  3.0992 -2.0498  2.4874
20813SOL     OW63879   4.232   4.530   0.844  0.3101  0.3945  0.2095
20813SOL    HW163880   4.277   4.571   0.918  0.3823 -0.8520  0.8855
20813SOL    HW263881   4.223   4.600   0.780  2.8913  0.8089  0.1944
20814SOL     OW63882   5.431   5.450   2.675 -0.2620  0.1475  0.1797
20814SOL    HW163883   5.378   5.486   2.746 -1.3121 -0.1404 -0.4251
20814SOL    HW263884   5.443   5.523   2.614  0.5365  0.3622  0.5793
20815SOL     OW63885   6.496   3.414   4.229  0.2476  0.1768  0.2448
20815SOL    HW163886   6.451   3.446   4.150 -0.3644  1.7907  1.1929
20815SOL    HW263887   6.574   3.371   4.195 -0.6860 -0.3896 -1.3168
20816SOL     OW63888   5.080   4.695   1.049 -0.3846  0.0369 -0.3892
20816SOL    HW163889   5.141   4.727   0.982  0.2605 -0.8852 -0.2729
20816SOL    HW263890   5.032   4.624   1.005  0.7365 -1.2535  0.3616
20817SOL     OW63891   6.931   4.982   4.067 -0.2224 -0.2413 -0.5131
20817SOL    HW163892   6.987   4.969   4.144  0.0836 -0.3764 -0.7545
20817SOL    HW263893   6.934   4.898   4.022 -1.3051 -0.5194 -0.0903
20818SOL     OW63894   5.152   4.067   3.381 -0.1543 -0.0916  0.4772
20818SOL    HW163895   5.068   4.098   3.346 -1.3155 -2.2808  1.1092
20818SOL    HW263896   5.199   4.147   3.406 -1.9362  1.2147 -0.1235
20819SOL     OW63897   6.235   5.855   1.937 -0.5514 -0.3837 -0.5810
20819SOL    HW163898   6.233   5.919   1.865 -1.4182  1.0442  0.6549
20819SOL    HW263899   6.144   5.827   1.947 -0.6157  0.2018  0.6087
20820SOL     OW63900   6.077   4.445   1.868 -0.0916 -0.5195  0.1350
20820SOL    HW163901   6.065   4.534   1.836  0.1981 -0.7201 -0.5433
20820SOL    HW263902   6.027   4.442   1.950 -0.2822  0.1970  0.0496
20821SOL     OW63903   7.295   6.383   4.828  0.4101  0.4984  0.7025
20821SOL    HW163904   7.328   6.356   4.914  0.4397  0.6576  0.7403
20821SOL    HW263905   7.310   6.307   4.772  0.2187  0.3236  0.8825
20822SOL     OW63906   5.396   3.772   3.896  0.6392  0.1383  0.4729
20822SOL    HW163907   5.399   3.757   3.990 -0.1610  2.3318  0.8872
20822SOL    HW263908   5.303   3.771   3.874  0.8397 -1.1232 -0.4720
20823SOL     OW63909   0.219   6.453   2.491  0.3382  0.0192 -0.3193
20823SOL    HW163910   0.259   6.394   2.428  2.7875  0.5956  0.5741
20823SOL    HW263911   0.230   6.410   2.575 -0.2386  0.5639  0.0455
20824SOL     OW63912   7.111   4.094   2.927  0.4142  0.3466 -0.2345
20824SOL    HW163913   7.126   4.108   3.020 -1.7943  0.8590  0.0977
20824SOL    HW263914   7.150   4.008   2.909 -0.6732 -0.5665  1.5695
20825SOL     OW63915   5.243   4.089   3.079 -0.4575  0.1693  0.2056
20825SOL    HW163916   5.154   4.105   3.110  0.3209  0.7315  2.2647
20825SOL    HW263917   5.291   4.169   3.098  0.2066  0.3987 -2.1474
20826SOL     OW63918   7.669   4.698   2.918 -0.3757  0.0095 -0.4254
20826SOL    HW163919   7.611   4.728   2.848  1.3062  2.5592 -0.8750
20826SOL    HW263920   7.755   4.694   2.876  0.2381 -0.9751  0.8874
20827SOL     OW63921   6.981   4.323   2.827  0.3838  0.0476  0.2258
20827SOL    HW163922   7.028   4.264   2.885 -1.7678 -0.9149  1.0764
20827SOL    HW263923   6.899   4.279   2.809 -1.0015  2.4333  0.2677
20828SOL     OW63924   6.229   5.188   3.106  0.0575  0.3705 -0.1108
20828SOL    HW163925   6.272   5.105   3.124  2.0297  1.6907  1.7395
20828SOL    HW263926   6.193   5.178   3.018  0.8707 -2.1545 -0.2232
20829SOL     OW63927   6.491   4.929   1.912  0.2284 -0.4804 -0.0451
20829SOL    HW163928   6.486   5.016   1.872 -0.0663 -0.6485 -0.3812
20829SOL    HW263929   6.560   4.884   1.863  1.3760  0.0228  1.0445
20830SOL     OW63930   4.210   5.830   1.864  0.3122 -0.1950 -0.3261
20830SOL    HW163931   4.136   5.883   1.834  0.3827 -0.7258 -1.4846
20830SOL    HW263932   4.174   5.741   1.872  0.7366 -0.3845 -0.5326
20831SOL     OW63933   5.536   4.194   2.591 -0.2477  0.1281 -0.4576
20831SOL    HW163934   5.446   4.213   2.566 -0.8502 -1.9761 -0.0420
20831SOL    HW263935   5.537   4.203   2.686 -0.1042 -0.1838 -0.4289
20832SOL     OW63936   7.185   6.052   3.747  0.6897 -0.3558  0.2838
20832SOL    HW163937   7.255   5.997   3.782  2.7191  0.6660 -1.7922
20832SOL    HW263938   7.228   6.136   3.730 -1.3636  0.6905 -0.0206
20833SOL     OW63939   6.990   5.224   3.040 -0.1672  0.4309  0.1148
20833SOL    HW163940   7.011   5.160   2.973 -1.4879  0.1923 -0.1033
20833SOL    HW263941   6.970   5.172   3.118 -0.1098  0.6273  0.2616
20834SOL     OW63942   5.915   5.544   0.425 -0.4118 -0.5424 -0.0686
20834SOL    HW163943   5.913   5.453   0.453  0.9396 -0.5008  0.2268
20834SOL    HW263944   5.906   5.594   0.506  0.9614 -0.4232  0.0215
20835SOL     OW63945   6.438   5.959   2.426 -0.0808 -0.0420 -0.3152
20835SOL    HW163946   6.378   5.999   2.363 -1.6762 -0.7655  0.6668
20835SOL    HW263947   6.501   6.028   2.447 -1.6857  1.3887  0.0207
20836SOL     OW63948   6.004   5.153   2.108 -0.1783  0.0687 -0.2838
20836SOL    HW163949   5.928   5.199   2.074 -0.5069  0.7409  1.2837
20836SOL    HW263950   6.077   5.181   2.053 -1.1813 -1.4165 -2.5145
20837SOL     OW63951   5.770   4.831   1.314  0.1336 -0.0789  0.3724
20837SOL    HW163952   5.715   4.795   1.244  0.7298 -0.7983  0.2630
20837SOL    HW263953   5.771   4.925   1.298  1.5168 -0.3651 -1.5388
20838SOL     OW63954   1.431   5.269   3.602 -0.3498 -0.5335 -0.4009
20838SOL    HW163955   1.519   5.233   3.608 -0.0170  0.5384  2.2429
20838SOL    HW263956   1.443   5.363   3.596 -1.3294 -0.4374 -1.3742
20839SOL     OW63957   7.384   4.804   2.226  0.4923 -0.5959 -0.0966
20839SOL    HW163958   7.290   4.823   2.224  0.7740  0.8876 -0.1527
20839SOL    HW263959   7.400   4.773   2.315  0.2355  0.8675  0.4929
20840SOL     OW63960   7.841   4.774   3.917 -0.6729  0.0199  0.4369
20840SOL    HW163961   7.814   4.793   4.007 -1.5687 -1.2381  0.4564
20840SOL    HW263962   7.759   4.766   3.869 -0.3808 -2.7068  0.2392
20841SOL     OW63963   7.674   3.699   3.672 -0.5304 -0.5035 -0.1032
20841SOL    HW163964   7.602   3.746   3.713  0.0105  1.7020 -1.5188
20841SOL    HW263965   7.728   3.669   3.746 -0.5492  1.7440  0.9049
20842SOL     OW63966   6.334   4.941   3.181 -0.4964 -0.2281  0.2384
20842SOL    HW163967   6.425   4.912   3.172 -0.7250 -0.9408  0.1144
20842SOL    HW263968   6.286   4.890   3.116 -0.6691  1.6996 -1.2174
20843SOL     OW63969   5.851   6.017   4.282  0.5485 -0.6977  0.0863
20843SOL    HW163970   5.911   5.949   4.250  1.5399  0.5482 -0.7584
20843SOL    HW263971   5.770   5.969   4.300  1.8538 -2.5067  1.6242
20844SOL     OW63972   5.306   5.583   2.865  0.0807  0.0947  0.1048
20844SOL    HW163973   5.210   5.584   2.875 -0.2080 -0.3744 -2.1044
20844SOL    HW263974   5.331   5.675   2.866 -0.3211  0.2032  1.1947
20845SOL     OW63975   7.475   4.685   1.770 -0.6064 -0.0636 -0.3035
20845SOL    HW163976   7.434   4.606   1.805 -1.8181  0.8205  0.3448
20845SOL    HW263977   7.526   4.719   1.843 -2.6288  1.4380  0.5044
20846SOL     OW63978   6.569   5.498   1.875 -0.2191  0.5126  0.3009
20846SOL    HW163979   6.516   5.420   1.858  1.3401 -0.0712 -2.4279
20846SOL    HW263980   6.659   5.469   1.860  0.3593  2.9625 -1.4162
20847SOL     OW63981   6.332   3.091   2.086  0.5761 -0.5344 -0.2729
20847SOL    HW163982   6.257   3.054   2.134  0.6409 -0.5408 -0.1762
20847SOL    HW263983   6.306   3.181   2.066  1.2156  0.0334  1.2626
20848SOL     OW63984   5.106   5.027   1.999 -0.3956  0.0209  0.1304
20848SOL    HW163985   5.145   4.965   1.937  0.3893  1.0145 -0.4006
20848SOL    HW263986   5.112   4.983   2.084  0.3349 -0.5557 -0.2067
20849SOL     OW63987   5.386   5.143   1.975  0.2349  0.1815 -0.1973
20849SOL    HW163988   5.314   5.106   2.025 -0.1763 -0.5575 -1.2962
20849SOL    HW263989   5.426   5.208   2.033 -0.6523 -0.1572  0.8056
20850SOL     OW63990   6.708   5.526   3.704 -0.8520  0.1435 -0.4152
20850SOL    HW163991   6.643   5.558   3.641  0.7119  0.6950 -1.8257
20850SOL    HW263992   6.775   5.485   3.651  0.0117 -0.3384  0.9936
20851SOL     OW63993   5.558   4.595   3.569  0.0764  0.4942 -0.4106
20851SOL    HW163994   5.576   4.680   3.610  1.8548 -0.1874  0.3388
20851SOL    HW263995   5.579   4.531   3.637 -1.8328 -0.5620 -0.7577
20852SOL     OW63996   5.152   4.639   4.987 -0.3458  0.4027 -0.0805
20852SOL    HW163997   5.087   4.642   5.057 -0.6499  0.6722 -0.3740
20852SOL    HW263998   5.101   4.633   4.907 -0.0319  1.4137 -0.3687
20853SOL     OW63999   7.077   4.882   4.261  0.3087 -0.5186 -0.0344
20853SOL    HW164000   7.168   4.860   4.282  0.9519  0.7417 -1.3151
20853SOL    HW264001   7.025   4.827   4.320  1.8262 -2.9242 -0.7790
20854SOL     OW64002   7.620   6.696   5.220 -0.4784  0.1763  0.1195
20854SOL    HW164003   7.615   6.705   5.315 -1.1507  0.5099  0.0590
20854SOL    HW264004   7.683   6.625   5.206 -0.5486 -0.0322  0.8151
20855SOL     OW64005   5.254   4.040   4.941  0.1839  0.2291 -0.0610
20855SOL    HW164006   5.267   4.103   5.012  0.0174 -0.9570  1.0451
20855SOL    HW264007   5.175   3.992   4.965  0.1050 -0.1716 -1.0674
20856SOL     OW64008   6.438   4.846   3.678 -0.0477 -0.0290  0.4535
20856SOL    HW164009   6.418   4.767   3.629  0.6221  0.1008 -0.0450
20856SOL    HW264010   6.405   4.918   3.624 -0.3560  0.0521  0.7467
20857SOL     OW64011   6.951   7.448   3.102  0.0282 -0.0349 -0.0685
20857SOL    HW164012   7.020   7.449   3.169 -1.6986  0.3900  1.8237
20857SOL    HW264013   6.928   7.540   3.089 -0.8925 -0.2154  0.1562
20858SOL     OW64014   5.555   4.791   5.698  0.1631 -0.0469 -0.5793
20858SOL    HW164015   5.621   4.857   5.719 -0.0985 -0.1729  0.7315
20858SOL    HW264016   5.510   4.825   5.621 -0.4941  1.7191  0.5358
20859SOL     OW64017   0.250   5.358   4.117 -0.1194 -0.5772  0.1825
20859SOL    HW164018   0.314   5.430   4.112 -0.1393 -0.4338  1.6479
20859SOL    HW264019   0.302   5.281   4.141 -0.0600 -1.1407 -1.6182
20860SOL     OW64020   6.332   5.059   4.952  0.5196  0.2357  0.3368
20860SOL    HW164021   6.367   5.147   4.967 -0.6512  0.8640 -0.3804
20860SOL    HW264022   6.263   5.072   4.886  1.2691 -1.4344 -0.8547
20861SOL     OW64023   6.869   4.887   6.568 -0.1071 -0.5840  0.6054
20861SOL    HW164024   6.904   4.932   6.492  1.3005 -1.5695  0.6408
20861SOL    HW264025   6.789   4.936   6.590  0.8288  1.2917  0.0784
20862SOL     OW64026   0.506   5.273   3.685 -0.1405 -0.4241  0.1611
20862SOL    HW164027   0.418   5.293   3.716  0.0414  0.2187  0.2913
20862SOL    HW264028   0.501   5.283   3.589 -0.2045 -0.3466  0.1725
20863SOL     OW64029   5.760   5.792   4.672  0.3547  0.3183  0.3058
20863SOL    HW164030   5.834   5.831   4.625 -0.0496  0.1676 -0.4779
20863SOL    HW264031   5.685   5.847   4.648 -0.2438 -0.9410 -0.8728
20864SOL     OW64032   6.726   3.636   6.101 -0.1946 -0.3552 -0.0193
20864SOL    HW164033   6.821   3.642   6.098 -0.2571  1.1151 -3.8523
20864SOL    HW264034   6.707   3.543   6.088  0.7857 -0.3441 -1.9014
20865SOL     OW64035   7.553   6.457   3.810 -0.2580 -0.1179  0.3888
20865SOL    HW164036   7.532   6.460   3.903 -0.5309  2.1437  0.3115
20865SOL    HW264037   7.579   6.366   3.794 -0.5364 -0.6363  2.5798
20866SOL     OW64038   7.061   4.874   5.525 -0.1169 -0.4502 -0.3491
20866SOL    HW164039   7.010   4.939   5.476 -1.5242 -1.0289  0.2843
20866SOL    HW264040   7.025   4.877   5.614  1.0976 -0.7560  0.1674
20867SOL     OW64041   6.366   5.310   4.326 -0.4742  0.3894 -0.3257
20867SOL    HW164042   6.293   5.279   4.380  0.1467  1.1708  1.0212
20867SOL    HW264043   6.423   5.234   4.316 -0.8240  0.1196 -0.2798
20868SOL     OW64044   5.776   5.267   3.039 -0.0693 -0.0145 -0.1030
20868SOL    HW164045   5.733   5.199   3.092 -1.3642 -1.3632 -2.6731
20868SOL    HW264046   5.713   5.285   2.969  1.9184  0.9880 -1.7113
20869SOL     OW64047   6.846   3.580   7.920 -0.4559  0.1505 -0.0138
20869SOL    HW164048   6.877   3.628   7.843  0.5424 -1.4588 -0.6641
20869SOL    HW264049   6.828   3.492   7.888  0.1813 -0.6158  1.6103
20870SOL     OW64050   5.837   5.024   4.126 -0.1736 -0.1506 -0.1912
20870SOL    HW164051   5.809   5.000   4.038  0.8216 -0.6464 -0.3862
20870SOL    HW264052   5.761   5.069   4.164 -0.4786  0.4302 -1.4336
20871SOL     OW64053   7.050   3.421   6.349  0.1394  0.1380 -0.3090
20871SOL    HW164054   7.133   3.414   6.397 -0.6271 -2.4853  0.8397
20871SOL    HW264055   6.985   3.436   6.417 -0.6679 -0.9903 -0.8055
20872SOL     OW64056   6.038   3.502   4.342 -0.3406  0.5767  0.4030
20872SOL    HW164057   6.055   3.585   4.296  1.0515  0.4411  0.6436
20872SOL    HW264058   6.068   3.434   4.282 -0.0752  0.3242  0.8109
20873SOL     OW64059   7.384   5.540   3.877 -0.1275  0.2771 -0.1904
20873SOL    HW164060   7.404   5.633   3.868  0.2245  0.0285 -2.9402
20873SOL    HW264061   7.324   5.521   3.804 -0.4751 -1.5743  0.5164
20874SOL     OW64062   6.082   5.465   4.495 -0.1024  0.4736 -0.3721
20874SOL    HW164063   6.159   5.480   4.550  0.1551 -0.1043 -0.5573
20874SOL    HW264064   6.107   5.498   4.409  0.8038 -1.6688 -1.0156
20875SOL     OW64065   7.455   5.426   3.484 -0.5848 -0.1091  0.4817
20875SOL    HW164066   7.394   5.359   3.453 -1.7673  1.3107 -0.4676
20875SOL    HW264067   7.510   5.446   3.408  1.9212 -2.1472  1.6260
20876SOL     OW64068   7.583   4.703   4.134 -0.4156 -0.5805 -0.0798
20876SOL    HW164069   7.653   4.766   4.148 -0.6530 -0.5512  1.0591
20876SOL    HW264070   7.553   4.679   4.222 -2.6323  0.3089 -0.5168
20877SOL     OW64071   6.209   5.784   4.602 -0.0562 -0.2209 -0.3368
20877SOL    HW164072   6.204   5.694   4.635  0.0763 -0.1417 -0.0990
20877SOL    HW264073   6.118   5.814   4.603  0.0271  0.0213  0.6429
20878SOL     OW64074   6.837   4.384   4.792  0.1614 -0.4615 -0.1499
20878SOL    HW164075   6.843   4.308   4.850 -2.6473  0.1157  1.0559
20878SOL    HW264076   6.867   4.457   4.846  1.4328 -0.4559 -0.8234
20879SOL     OW64077   6.374   3.611   4.802 -0.1561 -0.0797 -0.1585
20879SOL    HW164078   6.451   3.668   4.802  0.0181 -0.2854  1.6202
20879SOL    HW264079   6.300   3.671   4.790 -0.0036  0.6155  2.0909
20880SOL     OW64080   5.388   4.494   3.386  0.2838 -0.8113 -0.0705
20880SOL    HW164081   5.310   4.545   3.405  0.4858 -0.3828 -0.3673
20880SOL    HW264082   5.455   4.529   3.445  0.0693 -1.6736  0.7081
20881SOL     OW64083   7.549   4.824   5.237 -0.0239  0.1266 -0.2327
20881SOL    HW164084   7.585   4.820   5.148  0.9066  1.8403  0.0213
20881SOL    HW264085   7.484   4.893   5.233 -0.4498 -0.2390  0.2716
20882SOL     OW64086   6.807   6.088   3.832 -0.2002  0.1471 -0.0133
20882SOL    HW164087   6.848   6.041   3.905 -0.2028  0.3092  0.0940
20882SOL    HW264088   6.784   6.173   3.869  2.0762  1.2027 -0.8415
20883SOL     OW64089   6.477   6.215   5.677 -0.2416  0.2263 -0.2201
20883SOL    HW164090   6.508   6.179   5.593 -0.4119 -2.7051  0.8506
20883SOL    HW264091   6.537   6.286   5.697  2.8206 -2.0686 -0.6061
20884SOL     OW64092   5.739   5.246   5.880  0.0029  0.4705 -0.1862
20884SOL    HW164093   5.825   5.287   5.876 -0.0374  0.7191  1.0492
20884SOL    HW264094   5.732   5.196   5.798  0.7600  1.5143 -0.9158
20885SOL     OW64095   0.108   6.441   3.967 -0.4760 -0.6982 -0.2869
20885SOL    HW164096   0.056   6.363   3.984  1.0856 -1.6014  0.6010
20885SOL    HW264097   0.070   6.508   4.024  0.8494 -2.0452  2.3712
20886SOL     OW64098   6.781   5.008   3.555 -0.4776 -0.0706  0.0392
20886SOL    HW164099   6.752   5.079   3.497  0.2488  0.7932  0.7104
20886SOL    HW264100   6.821   4.944   3.496 -0.2871  0.5149 -0.4848
20887SOL     OW64101   6.810   3.970   4.307 -0.0422  0.4603 -0.2732
20887SOL    HW164102   6.847   3.911   4.241  0.1411  1.0582 -0.7102
20887SOL    HW264103   6.786   4.049   4.258  1.0972  1.3491  0.5371
20888SOL     OW64104   0.557   2.550   4.883 -0.3825  0.1391 -0.3346
20888SOL    HW164105   0.528   2.640   4.870 -2.3339 -0.3789  0.0941
20888SOL    HW264106   0.578   2.545   4.976 -1.1348 -0.0668 -0.1719
20889SOL     OW64107   7.193   5.875   4.204  0.0071 -0.4235 -0.1552
20889SOL    HW164108   7.269   5.930   4.223 -0.2957  0.8525 -2.3036
20889SOL    HW264109   7.227   5.785   4.207  1.6588  0.1151 -1.1831
20890SOL     OW64110   5.360   4.452   5.611  0.0599 -0.2817 -0.0718
20890SOL    HW164111   5.318   4.486   5.532 -0.6125  0.1999  0.4833
20890SOL    HW264112   5.451   4.480   5.605  0.0474 -0.3750 -0.7425
20891SOL     OW64113   6.086   3.990   6.636  0.1800 -0.9304  0.2135
20891SOL    HW164114   6.079   4.059   6.701  0.2136 -1.3186  0.6331
20891SOL    HW264115   6.173   4.002   6.598 -0.3455  0.1193 -0.7120
20892SOL     OW64116   4.403   6.338   4.960  0.0756 -0.1777  0.2590
20892SOL    HW164117   4.452   6.374   5.034  1.0175  2.7122 -1.6070
20892SOL    HW264118   4.313   6.367   4.975  0.9502  4.3472 -1.6833
20893SOL     OW64119   7.218   2.219   5.171  0.2339  0.0769 -0.3520
20893SOL    HW164120   7.294   2.277   5.175  0.4863 -0.3096  0.9781
20893SOL    HW264121   7.144   2.278   5.157  0.5125  0.7257  0.7972
20894SOL     OW64122   5.906   4.005   3.928 -0.2715 -0.1213  0.2417
20894SOL    HW164123   5.970   3.947   3.967 -0.1130  0.9878  1.6936
20894SOL    HW264124   5.824   3.987   3.975 -0.2054  0.8377  0.7606
20895SOL     OW64125   5.570   4.002   5.542  0.0158  0.0793  0.2798
20895SOL    HW164126   5.527   3.992   5.627  1.3290 -2.5527  0.7395
20895SOL    HW264127   5.609   4.090   5.545 -1.7273  0.8629  1.5017
20896SOL     OW64128   5.030   5.602   2.911 -0.1627  0.1130  0.1778
20896SOL    HW164129   5.004   5.539   2.843  0.3961  0.1928 -0.1120
20896SOL    HW264130   4.948   5.624   2.955 -0.6115  0.4641 -0.8079
20897SOL     OW64131   5.829   2.060   2.550  0.2518 -0.8654 -0.6495
20897SOL    HW164132   5.757   2.067   2.613 -0.1854  0.5912 -1.2678
20897SOL    HW264133   5.899   2.112   2.589  0.1860 -0.4491 -1.0826
20898SOL     OW64134   7.068   4.126   5.853 -0.1914 -0.4273 -0.4528
20898SOL    HW164135   6.978   4.156   5.843  0.3755  1.4779 -0.3641
20898SOL    HW264136   7.078   4.055   5.790 -0.8859  1.4368 -2.8155
20899SOL     OW64137   6.195   4.399   6.158  0.3202  0.4134  0.3403
20899SOL    HW164138   6.143   4.419   6.236  0.1007 -0.4069  0.4072
20899SOL    HW264139   6.136   4.415   6.085  0.4567  0.9657  0.3481
20900SOL     OW64140   4.835   1.126   6.396 -0.2417  0.0043  0.0177
20900SOL    HW164141   4.758   1.082   6.431  0.0542 -1.4439 -1.0543
20900SOL    HW264142   4.812   1.146   6.305  0.4279  0.0641 -0.1427
20901SOL     OW64143   5.269   6.938   5.010 -0.4575  0.3547 -0.1481
20901SOL    HW164144   5.348   6.890   4.986  0.5785  0.9727  1.7993
20901SOL    HW264145   5.199   6.873   5.009  0.2542 -0.4181 -0.8969
20902SOL     OW64146   6.252   6.924   4.683 -0.0005  0.2742  0.3602
20902SOL    HW164147   6.227   6.989   4.617  0.4052  0.1069  0.0395
20902SOL    HW264148   6.335   6.956   4.718  0.6409 -0.5037 -0.4035
20903SOL     OW64149   0.385   5.162   4.315 -0.0419 -0.1542 -0.3462
20903SOL    HW164150   0.316   5.106   4.348 -0.4188 -0.7999 -2.1353
20903SOL    HW264151   0.464   5.108   4.318  0.6972  0.8331  2.4783
20904SOL     OW64152   6.291   4.680   6.257  0.1429  0.2886 -0.0328
20904SOL    HW164153   6.356   4.749   6.241  0.3332 -0.1909 -1.4878
20904SOL    HW264154   6.343   4.605   6.285  0.3768 -0.4108 -2.1907
20905SOL     OW64155   4.622   5.770   5.190 -0.6387  0.1701 -0.0808
20905SOL    HW164156   4.597   5.712   5.118  2.1480  0.7353 -1.6437
20905SOL    HW264157   4.545   5.826   5.204 -1.2512  0.0963 -2.7196
20906SOL     OW64158   5.879   4.725   5.649  0.4451  0.3324 -0.0963
20906SOL    HW164159   5.958   4.771   5.619  0.3116  1.0941  0.6851
20906SOL    HW264160   5.873   4.747   5.742 -0.3518 -0.2294 -0.0084
20907SOL     OW64161   6.282   6.733   4.342  0.0787  0.0388 -0.0602
20907SOL    HW164162   6.191   6.714   4.365 -0.5440  0.7614 -1.7516
20907SOL    HW264163   6.287   6.828   4.339  0.9398  0.0106  0.1760
20908SOL     OW64164   5.626   2.104   5.008 -0.0318  0.1134 -0.0040
20908SOL    HW164165   5.603   2.181   5.059 -1.4910  0.9730 -1.8609
20908SOL    HW264166   5.692   2.135   4.946  1.4019 -0.8192  0.9728
20909SOL     OW64167   6.727   6.258   2.871  0.0489  0.0513 -0.1548
20909SOL    HW164168   6.693   6.170   2.887  1.1266 -0.2859  0.3938
20909SOL    HW264169   6.818   6.244   2.843 -0.0789  0.9427 -1.0688
20910SOL     OW64170   5.635   5.565   5.412  1.0211 -0.6149 -0.4377
20910SOL    HW164171   5.625   5.542   5.504 -0.2636  0.6412 -0.2369
20910SOL    HW264172   5.571   5.511   5.366  0.1774  0.2807 -0.3318
20911SOL     OW64173   6.541   3.807   4.080 -0.4656  0.5281 -0.3959
20911SOL    HW164174   6.589   3.859   4.015 -1.1485 -0.2448 -1.5572
20911SOL    HW264175   6.592   3.727   4.088  1.3635  1.8192  2.4322
20912SOL     OW64176   5.548   6.723   5.207 -0.3353  0.5578 -0.1187
20912SOL    HW164177   5.638   6.700   5.186 -0.9542 -1.0368 -1.2061
20912SOL    HW264178   5.518   6.776   5.133  0.4049  3.2547  1.3730
20913SOL     OW64179   5.957   6.290   4.259  0.6534 -0.3028 -0.2210
20913SOL    HW164180   5.962   6.284   4.354 -1.4606 -0.1017 -0.0595
20913SOL    HW264181   5.901   6.218   4.232 -0.9717  1.1935 -1.0329
20914SOL     OW64182   6.416   4.101   5.466  0.3871 -0.2993  0.8439
20914SOL    HW164183   6.415   4.090   5.561  2.1811 -0.2002  0.9121
20914SOL    HW264184   6.340   4.052   5.435  1.4031 -2.8181  2.0963
20915SOL     OW64185   6.813   5.079   6.129 -0.0851 -0.2031  0.0475
20915SOL    HW164186   6.790   5.072   6.221 -2.1644  1.2429 -0.3200
20915SOL    HW264187   6.866   5.159   6.123 -1.5340  0.7595 -0.2625
20916SOL     OW64188   6.312   3.389   2.169  0.5225 -0.0473  0.1940
20916SOL    HW164189   6.391   3.417   2.216  1.2318 -0.1332 -0.9078
20916SOL    HW264190   6.311   3.444   2.091 -0.6956  0.1646  0.3452
20917SOL     OW64191   4.956   4.983   4.554  0.3435 -0.6137  0.3208
20917SOL    HW164192   4.861   4.988   4.541  0.6619  0.8942 -2.3203
20917SOL    HW264193   4.973   5.045   4.625 -0.4218  1.7032 -1.3766
20918SOL     OW64194   5.535   4.918   5.384  0.2153  0.5822 -0.1949
20918SOL    HW164195   5.448   4.953   5.401  0.5157  1.6476 -0.7376
20918SOL    HW264196   5.584   4.993   5.350  0.8384 -0.4426 -1.6125
20919SOL     OW64197   7.200   2.822   5.693 -0.4452  0.1710 -0.1256
20919SOL    HW164198   7.129   2.825   5.628 -0.0269  0.1516 -0.5919
20919SOL    HW264199   7.232   2.912   5.698  0.5333 -0.0992 -1.0970
20920SOL     OW64200   5.509   6.665   3.342 -0.2570 -0.5365 -0.6027
20920SOL    HW164201   5.437   6.606   3.364  0.3018 -0.5889  1.2671
20920SOL    HW264202   5.533   6.705   3.426  1.8786 -0.5074 -1.1785
20921SOL     OW64203   5.439   4.672   5.330  0.1160 -0.0857  0.4273
20921SOL    HW164204   5.497   4.623   5.272  0.4947  0.2410  0.5168
20921SOL    HW264205   5.479   4.760   5.335 -1.3294  0.6879 -0.8725
20922SOL     OW64206   5.317   3.562   5.234  0.1799  0.3034 -0.6949
20922SOL    HW164207   5.295   3.472   5.211 -1.5040  0.3994  0.3666
20922SOL    HW264208   5.241   3.614   5.209 -0.8889  0.7137  2.8276
20923SOL     OW64209   7.147   5.753   3.345  0.0978  0.0164 -0.0087
20923SOL    HW164210   7.111   5.841   3.358  0.4364 -0.0319  1.4163
20923SOL    HW264211   7.232   5.756   3.388  0.0327 -1.0751  0.2198
20924SOL     OW64212   5.361   4.149   5.429 -0.3185 -0.6901 -0.2236
20924SOL    HW164213   5.318   4.103   5.501 -0.1938 -1.8814 -0.8806
20924SOL    HW264214   5.451   4.116   5.430 -0.3483 -0.8128 -0.9883
20925SOL     OW64215   7.877   4.245   2.826  0.4401 -0.0173 -0.5718
20925SOL    HW164216   7.848   4.308   2.759 -1.0233 -1.2760 -1.1792
20925SOL    HW264217   7.968   4.226   2.803  0.1519  0.0489 -1.8477
20926SOL     OW64218   5.941   3.668   5.865  0.1635  0.6281  0.3985
20926SOL    HW164219   6.034   3.647   5.856 -0.4690 -1.8688 -1.6058
20926SOL    HW264220   5.916   3.632   5.951  0.6894 -0.3048  0.1693
20927SOL     OW64221   7.542   5.115   3.761 -0.5275  0.0284 -0.0249
20927SOL    HW164222   7.593   5.173   3.704 -0.7122 -0.1603 -0.3828
20927SOL    HW264223   7.453   5.150   3.757 -0.7355 -0.5348 -0.5969
20928SOL     OW64224   5.934   5.157   3.610  0.1688 -0.1117  1.0084
20928SOL    HW164225   5.847   5.185   3.638  0.0895  0.2228  0.4390
20928SOL    HW264226   5.960   5.221   3.544 -1.1084 -2.7274 -2.2861
20929SOL     OW64227   0.632   5.197   2.817  0.6412 -0.2075 -0.3428
20929SOL    HW164228   0.642   5.105   2.791  0.1995  0.0571 -1.5193
20929SOL    HW264229   0.602   5.241   2.738 -0.6418  0.6917  0.5942
20930SOL     OW64230   6.088   5.084   3.831  0.5067  0.6558 -0.1954
20930SOL    HW164231   6.070   5.115   3.743  0.5650 -0.4829 -0.6345
20930SOL    HW264232   6.165   5.027   3.820  1.5900  1.8459  0.8770
20931SOL     OW64233   4.706   4.217   5.410  0.0635  0.2041 -0.2203
20931SOL    HW164234   4.751   4.133   5.405  0.6436  0.5729 -2.7246
20931SOL    HW264235   4.763   4.278   5.364 -0.7642  1.7923  0.7538
20932SOL     OW64236   5.559   3.332   5.706  0.2330  0.0872 -0.5818
20932SOL    HW164237   5.609   3.411   5.726 -0.9959  0.3079  2.0373
20932SOL    HW264238   5.618   3.260   5.728  1.1060  0.2089 -2.3225
20933SOL     OW64239   5.421   3.951   4.716 -0.3224  0.5055 -0.0073
20933SOL    HW164240   5.326   3.944   4.728 -0.1190 -1.1549  0.9197
20933SOL    HW264241   5.456   3.963   4.805  0.4716 -1.1019 -0.0766
20934SOL     OW64242   5.850   3.897   3.331  0.7393 -0.2450  0.1280
20934SOL    HW164243   5.841   3.940   3.416 -3.2181  0.0858 -0.2958
20934SOL    HW264244   5.906   3.957   3.281 -2.1129  3.1190  0.5439
20935SOL     OW64245   6.862   4.347   3.751 -0.1137 -1.1923 -0.2559
20935SOL    HW164246   6.921   4.292   3.803 -0.6373 -1.8365 -0.3492
20935SOL    HW264247   6.790   4.290   3.725 -0.9184 -0.3583  0.0604
20936SOL     OW64248   6.667   3.861   5.737  0.5055 -0.3962 -0.0325
20936SOL    HW164249   6.750   3.899   5.710 -0.5251  1.9109 -0.1559
20936SOL    HW264250   6.678   3.840   5.830  1.4280 -0.8047 -0.2231
20937SOL     OW64251   5.493   4.225   5.084  0.4674  0.1249  0.3425
20937SOL    HW164252   5.429   4.287   5.050  0.7432 -0.0389 -0.4933
20937SOL    HW264253   5.474   4.220   5.178  0.5692  1.6227  0.4747
20938SOL     OW64254   6.490   5.060   4.295  0.7071  0.0685  0.0659
20938SOL    HW164255   6.496   5.000   4.220 -1.0033 -0.3760  0.2248
20938SOL    HW264256   6.476   5.003   4.370  0.4181  0.5935  0.4178
20939SOL     OW64257   5.535   4.806   3.298 -0.0165  0.6897 -0.0703
20939SOL    HW164258   5.597   4.748   3.342 -1.6058 -2.3163 -1.5314
20939SOL    HW264259   5.554   4.796   3.205 -3.0322 -0.9350 -0.6267
20940SOL     OW64260   6.086   2.935   5.110 -0.1685  0.0715 -0.6044
20940SOL    HW164261   6.145   2.917   5.183  0.3180 -1.6757 -1.3654
20940SOL    HW264262   6.125   3.011   5.067 -1.0712  1.8341  1.5073
20941SOL     OW64263   5.515   2.618   5.855 -0.5868  0.0518  0.3293
20941SOL    HW164264   5.557   2.548   5.804 -0.0459  0.6761 -0.1034
20941SOL    HW264265   5.512   2.584   5.945 -0.8186 -0.7359  0.0294
20942SOL     OW64266   6.772   4.815   5.558  0.3584  0.2548  0.0233
20942SOL    HW164267   6.797   4.870   5.484  1.7252 -2.3189 -1.5491
20942SOL    HW264268   6.842   4.830   5.622  1.3832 -0.5076 -0.8845
20943SOL     OW64269   7.051   6.190   5.106  0.5203  0.6170 -0.1301
20943SOL    HW164270   6.998   6.151   5.175 -0.9291 -0.5081 -1.7698
20943SOL    HW264271   6.987   6.231   5.047  1.6584  1.1065 -1.0760
20944SOL     OW64272   1.951   6.773   4.257  0.8676  0.0635 -0.7149
20944SOL    HW164273   1.880   6.751   4.196  0.5754 -1.4793  0.1195
20944SOL    HW264274   1.975   6.689   4.297  0.6402  1.0673  1.7154
20945SOL     OW64275   5.770   4.737   5.370 -0.0319 -0.5996 -0.2192
20945SOL    HW164276   5.728   4.822   5.357  0.1113 -0.5145 -0.1291
20945SOL    HW264277   5.802   4.740   5.460  0.2012 -0.6482 -0.3004
20946SOL     OW64278   7.504   5.780   4.097  0.0696  0.0471  0.4303
20946SOL    HW164279   7.599   5.785   4.091  0.2718 -1.7558  1.4632
20946SOL    HW264280   7.486   5.772   4.190 -0.9765 -1.3481  0.1351
20947SOL     OW64281   6.288   5.875   4.348 -0.1522 -0.1607  0.0220
20947SOL    HW164282   6.261   5.873   4.440  0.7418 -0.7772  0.2759
20947SOL    HW264283   6.333   5.792   4.333 -0.4452 -0.1561 -1.0354
20948SOL     OW64284   6.625   4.186   7.228  0.2164 -0.6433 -0.1804
20948SOL    HW164285   6.563   4.245   7.185 -0.6358 -1.5053 -0.1555
20948SOL    HW264286   6.598   4.185   7.320  0.3740 -0.8955 -0.1366
20949SOL     OW64287   6.137   3.897   6.021  0.4571 -0.0809 -0.1731
20949SOL    HW164288   6.172   3.810   6.042 -3.6948 -1.9330  0.1316
20949SOL    HW264289   6.178   3.920   5.938  2.6665 -1.6596  0.3729
20950SOL     OW64290   6.574   3.877   6.049  0.4865 -0.2608 -0.0656
20950SOL    HW164291   6.593   3.821   6.124 -0.3588  0.2061  0.5194
20950SOL    HW264292   6.487   3.848   6.019 -0.2389  1.1127  0.6215
20951SOL     OW64293   6.669   5.890   4.740 -0.2561  0.3676  0.1885
20951SOL    HW164294   6.708   5.809   4.704 -1.5488 -0.3173  0.2865
20951SOL    HW264295   6.664   5.949   4.665 -1.0523 -0.3285 -0.3228
20952SOL     OW64296   6.798   5.959   3.493 -0.6799  0.2274  0.3909
20952SOL    HW164297   6.745   5.952   3.414  0.1083 -1.9447 -0.0075
20952SOL    HW264298   6.887   5.976   3.460 -0.5059  0.2209  0.8547
20953SOL     OW64299   6.228   4.809   4.370  0.2450 -0.1577  0.0403
20953SOL    HW164300   6.213   4.857   4.288  1.5270  1.8208  0.8889
20953SOL    HW264301   6.301   4.751   4.350  1.9591  1.7941  0.2375
20954SOL     OW64302   5.939   3.199   5.151 -0.1876  0.5356  0.1520
20954SOL    HW164303   5.977   3.249   5.224  0.9618  2.7424 -1.8334
20954SOL    HW264304   6.011   3.189   5.089 -1.4991  0.0055 -1.3454
20955SOL     OW64305   7.151   4.544   4.737  0.0725  0.0008  0.5446
20955SOL    HW164306   7.202   4.463   4.739 -0.0142 -0.0780 -0.2368
20955SOL    HW264307   7.150   4.573   4.828 -0.1735 -1.0530  0.8947
20956SOL     OW64308   6.991   5.891   3.983  0.1180  0.3047  0.2670
20956SOL    HW164309   7.051   5.879   4.056 -0.0138 -1.3366  0.1474
20956SOL    HW264310   7.042   5.867   3.906 -0.2648  0.2549  0.0273
20957SOL     OW64311   5.735   5.463   6.525 -0.0892  0.4395 -0.0960
20957SOL    HW164312   5.802   5.404   6.490  1.3267  1.2046  1.1932
20957SOL    HW264313   5.743   5.543   6.473 -3.8600 -1.1690 -3.7545
20958SOL     OW64314   6.557   4.653   5.337 -0.2598 -0.5148 -0.0567
20958SOL    HW164315   6.557   4.702   5.419 -0.6063 -0.2588 -0.2091
20958SOL    HW264316   6.464   4.640   5.317 -0.1784 -1.3605  0.0600
20959SOL     OW64317   5.945   6.619   4.991 -0.0276  0.0027 -0.1251
20959SOL    HW164318   5.946   6.681   4.918  0.1347 -1.2589 -1.2444
20959SOL    HW264319   6.021   6.642   5.044  0.4167  0.3319 -0.8984
20960SOL     OW64320   5.539   4.045   3.775  0.5142 -0.4817  0.1945
20960SOL    HW164321   5.508   4.023   3.863 -0.9605  2.0278  0.3861
20960SOL    HW264322   5.478   4.001   3.716  0.4350 -0.7425  0.4697
20961SOL     OW64323   0.022   3.544   4.468 -0.1261 -0.3864 -0.1817
20961SOL    HW164324  -0.012   3.614   4.413  0.5413  0.0103 -0.0944
20961SOL    HW264325   0.026   3.468   4.410 -1.0338 -0.4069 -0.2266
20962SOL     OW64326   6.052   5.292   4.033  0.3281  0.0104  0.0983
20962SOL    HW164327   6.145   5.309   4.045 -0.0569  0.8740  2.1866
20962SOL    HW264328   6.049   5.218   3.973  2.3207  0.4884 -0.6669
20963SOL     OW64329   6.060   5.872   4.138  0.0868 -0.2695 -0.6013
20963SOL    HW164330   6.063   5.778   4.155 -1.5658  0.0030  1.6115
20963SOL    HW264331   6.146   5.904   4.166 -0.2809 -0.7872  1.2745
20964SOL     OW64332   5.256   5.319   4.476  0.3010 -0.2524 -0.0456
20964SOL    HW164333   5.293   5.371   4.405 -1.2773  3.0307  1.3171
20964SOL    HW264334   5.180   5.276   4.436 -0.1731  1.0039 -0.5544
20965SOL     OW64335   5.956   4.046   2.406  0.0314  0.3693  0.3480
20965SOL    HW164336   5.987   4.110   2.343 -1.7296  1.3752  0.4515
20965SOL    HW264337   5.929   3.971   2.353  2.1935 -0.3867  0.2358
20966SOL     OW64338   1.097   5.286   4.626  0.2848  0.1351 -0.4411
20966SOL    HW164339   1.152   5.221   4.583 -0.4731 -0.3437 -0.7094
20966SOL    HW264340   1.116   5.277   4.719 -1.5354 -2.1931 -0.1997
20967SOL     OW64341   5.412   2.583   5.428 -0.0575 -0.0543 -0.5596
20967SOL    HW164342   5.367   2.634   5.495  0.2790  1.0461 -1.1517
20967SOL    HW264343   5.418   2.641   5.353 -1.9140 -1.8127 -2.1639
20968SOL     OW64344   7.876   2.918   4.448  0.8110  0.3565  0.0379
20968SOL    HW164345   7.856   3.003   4.487 -5.5400 -1.9429  3.3359
20968SOL    HW264346   7.810   2.907   4.379  1.0787 -2.0185  0.0505
20969SOL     OW64347   6.455   4.026   5.728  0.3233  0.0041  0.0976
20969SOL    HW164348   6.445   4.002   5.820  0.3120  1.8803  0.6213
20969SOL    HW264349   6.543   3.996   5.705 -0.0417 -1.3842  0.3935
20970SOL     OW64350   7.182   4.538   4.465  0.2815  0.1447  0.2793
20970SOL    HW164351   7.172   4.532   4.560  0.1807  0.9287  0.3191
20970SOL    HW264352   7.104   4.585   4.436 -2.9580 -5.0527 -0.8702
20971SOL     OW64353   7.287   6.647   4.524  0.1985 -0.3762  0.0595
20971SOL    HW164354   7.247   6.604   4.449  0.8366 -0.8361 -0.0327
20971SOL    HW264355   7.286   6.741   4.502  0.8514 -0.5502 -0.7660
20972SOL     OW64356   5.230   6.509   5.553 -0.1285 -0.0512  0.7916
20972SOL    HW164357   5.309   6.562   5.565  0.3076  0.0227 -1.8804
20972SOL    HW264358   5.158   6.571   5.566  0.2772  0.3253  1.3154
20973SOL     OW64359   5.206   3.901   4.445  0.1123  0.2544  0.5403
20973SOL    HW164360   5.176   3.850   4.370  1.5072 -1.3365  1.0067
20973SOL    HW264361   5.189   3.992   4.421  0.2586 -0.2291 -1.5710
20974SOL     OW64362   0.245   4.381   4.401  0.1506  0.5006 -0.4751
20974SOL    HW164363   0.195   4.326   4.461  2.2717 -0.7469  0.2549
20974SOL    HW264364   0.239   4.469   4.438 -2.0664  0.5813 -0.8559
20975SOL     OW64365   6.547   5.533   4.812 -0.2118  0.2868 -0.2569
20975SOL    HW164366   6.635   5.544   4.775  0.6423  0.0064  1.5283
20975SOL    HW264367   6.512   5.622   4.816 -0.3859  0.3111 -1.7657
20976SOL     OW64368   6.155   2.797   6.076 -0.0959  0.2029  0.8309
20976SOL    HW164369   6.080   2.840   6.117 -0.7718 -0.5503  0.4041
20976SOL    HW264370   6.123   2.711   6.049  0.9968 -0.2510  0.8935
20977SOL     OW64371   5.652   5.100   1.854  0.4616 -0.0475 -0.0006
20977SOL    HW164372   5.558   5.117   1.862  0.6148  0.2029  1.6292
20977SOL    HW264373   5.658   5.004   1.851  0.0953 -0.0510 -1.4645
20978SOL     OW64374   5.060   4.660   4.697  0.0041  0.2219 -0.1561
20978SOL    HW164375   5.115   4.725   4.654  0.5601 -0.8710 -1.1252
20978SOL    HW264376   4.988   4.645   4.635 -0.7311  0.7073  0.5511
20979SOL     OW64377   6.882   5.765   1.971  0.6151  0.1824  0.1541
20979SOL    HW164378   6.844   5.679   1.992 -0.5887  0.5376 -0.4992
20979SOL    HW264379   6.970   5.745   1.940  0.0181 -0.9146 -0.9078
20980SOL     OW64380   7.999   7.623   3.641  0.4023  0.7336 -0.3370
20980SOL    HW164381   8.027   7.564   3.571  0.8675  0.5967 -0.0405
20980SOL    HW264382   7.956   7.566   3.704  0.3945  0.7900 -0.2915
20981SOL     OW64383   7.777   5.399   4.698 -0.1847  0.2274  0.1756
20981SOL    HW164384   7.692   5.360   4.719 -0.2455 -0.1840 -0.7891
20981SOL    HW264385   7.768   5.430   4.608  0.7645 -0.0461 -0.0264
20982SOL     OW64386   6.907   6.140   4.769  0.1520 -1.0748  0.0096
20982SOL    HW164387   6.816   6.141   4.796 -0.1798 -0.2907 -1.1037
20982SOL    HW264388   6.935   6.231   4.774  1.3910 -1.4809  1.9252
20983SOL     OW64389   5.533   5.156   4.923  0.1298 -0.3111  0.1381
20983SOL    HW164390   5.553   5.250   4.925 -0.7427 -0.0648 -1.4688
20983SOL    HW264391   5.602   5.118   4.870 -1.0211 -0.1371 -1.5440
20984SOL     OW64392   4.419   5.255   3.970 -0.1694  0.9181  0.5424
20984SOL    HW164393   4.345   5.252   3.908 -0.0346  0.4830  0.3963
20984SOL    HW264394   4.411   5.175   4.021  1.3315 -0.1574 -0.8126
20985SOL     OW64395   6.737   4.359   5.400  0.2199 -0.2061 -0.5931
20985SOL    HW164396   6.711   4.384   5.489 -1.8752 -0.3418 -1.1073
20985SOL    HW264397   6.833   4.352   5.404  0.2933  1.0872  1.2961
20986SOL     OW64398   7.522   4.165   1.824  0.3411  0.2973  0.1676
20986SOL    HW164399   7.474   4.222   1.763  0.8027 -0.6594 -1.1491
20986SOL    HW264400   7.520   4.212   1.907 -2.7919  0.3595  0.1722
20987SOL     OW64401   7.332   3.999   5.316 -0.6173 -0.8048  0.2221
20987SOL    HW164402   7.242   4.014   5.345 -1.1466 -4.0572  0.6237
20987SOL    HW264403   7.375   3.959   5.391  0.8199 -0.4878 -0.4003
20988SOL     OW64404   5.857   5.477   5.194  0.1283 -0.1889 -0.1580
20988SOL    HW164405   5.799   5.504   5.266  0.3744  1.2896 -0.4739
20988SOL    HW264406   5.934   5.534   5.203 -0.2752  0.7778 -2.1857
20989SOL     OW64407   6.164   3.991   3.576 -0.1873 -0.3648 -0.6992
20989SOL    HW164408   6.215   3.948   3.645 -1.0754  1.1993  1.0018
20989SOL    HW264409   6.203   3.959   3.495  1.0825 -2.0654  0.4981
20990SOL     OW64410   7.709   5.463   4.421 -0.4267  0.0494  0.1233
20990SOL    HW164411   7.749   5.377   4.408 -0.0787  0.1739  0.3923
20990SOL    HW264412   7.713   5.504   4.334 -0.3938 -0.1161  0.0454
20991SOL     OW64413   6.496   3.677   5.316  0.0090  0.0357  0.2633
20991SOL    HW164414   6.568   3.635   5.270  0.3948 -0.7702  1.5591
20991SOL    HW264415   6.418   3.658   5.263  0.5815  0.0245 -0.5874
20992SOL     OW64416   5.000   5.202   4.355  0.2690  0.1797 -0.0121
20992SOL    HW164417   4.997   5.281   4.409  1.0238 -0.6792  1.3162
20992SOL    HW264418   4.931   5.146   4.390  0.9226 -0.4808  0.2433
20993SOL     OW64419   5.278   4.211   2.549 -0.4731  0.2619 -0.2032
20993SOL    HW164420   5.212   4.171   2.606 -1.4031 -0.3019 -1.5997
20993SOL    HW264421   5.229   4.272   2.495 -0.5079 -2.1215 -3.1716
20994SOL     OW64422   7.268   5.597   2.677  0.2654 -0.1897  0.4404
20994SOL    HW164423   7.218   5.540   2.734  0.9212 -0.4682  0.7520
20994SOL    HW264424   7.332   5.539   2.635 -1.1070 -0.2880 -1.7179
20995SOL     OW64425   7.824   6.502   5.958 -0.0931 -0.0738  0.0053
20995SOL    HW164426   7.749   6.446   5.939  0.6608 -0.2657 -2.8005
20995SOL    HW264427   7.899   6.458   5.918  1.1174  1.3170  0.6132
20996SOL     OW64428   5.289   4.383   5.014  0.1565  0.5784 -0.8048
20996SOL    HW164429   5.242   4.465   4.997 -0.4487  0.3176 -0.4546
20996SOL    HW264430   5.236   4.339   5.081  0.6306  0.0327 -0.7805
20997SOL     OW64431   5.019   4.577   4.351  0.0328 -0.1841  0.2105
20997SOL    HW164432   5.039   4.498   4.301  0.9023  1.0648 -1.5529
20997SOL    HW264433   4.964   4.629   4.292  0.0279  0.8088  1.0635
20998SOL     OW64434   0.046   5.024   4.078 -0.1610 -0.5257 -0.3985
20998SOL    HW164435   0.061   5.004   4.170  1.2671  0.3738 -0.3904
20998SOL    HW264436   0.121   4.985   4.033  0.3428  0.9286 -0.8797
20999SOL     OW64437   6.292   4.516   4.985 -0.2666 -0.1221  0.1499
20999SOL    HW164438   6.327   4.432   4.957  3.0943  1.5571 -1.4109
20999SOL    HW264439   6.256   4.555   4.906  1.7660  1.3626 -0.1298
21000SOL     OW64440   5.587   5.272   2.826 -0.0405 -0.3909 -0.3146
21000SOL    HW164441   5.545   5.333   2.766  0.2804 -0.4993 -0.6521
21000SOL    HW264442   5.538   5.190   2.814 -0.0423 -0.3842 -0.3550
21001SOL     OW64443   4.714   4.688   4.252  0.2296 -0.2351 -0.2419
21001SOL    HW164444   4.626   4.714   4.225 -0.0961  0.5129  1.4693
21001SOL    HW264445   4.772   4.739   4.195 -0.4289 -0.2240 -0.9186
21002SOL     OW64446   7.310   5.586   1.725  0.2996 -0.7024 -0.3993
21002SOL    HW164447   7.363   5.610   1.801 -1.6049 -2.1785  1.5182
21002SOL    HW264448   7.372   5.545   1.665  1.9426  0.8752  0.1343
21003SOL     OW64449   5.766   6.833   6.317  0.0630  0.0188 -0.0762
21003SOL    HW164450   5.685   6.802   6.278  1.2494 -1.8109 -1.2551
21003SOL    HW264451   5.833   6.813   6.251  1.3349  2.7608  0.2255
21004SOL     OW64452   6.808   5.193   3.937 -0.0107 -0.0622  0.5198
21004SOL    HW164453   6.850   5.127   3.992  0.6283  0.9615  1.3085
21004SOL    HW264454   6.741   5.145   3.889  1.0800 -1.4690  0.3283
21005SOL     OW64455   7.105   6.307   4.463  0.4876  0.3526  0.2933
21005SOL    HW164456   7.170   6.292   4.394 -0.0669  1.1109 -0.3995
21005SOL    HW264457   7.065   6.221   4.477  0.9058  0.1044 -0.0084
21006SOL     OW64458   0.181   3.983   3.927 -0.0397  0.1452 -0.3999
21006SOL    HW164459   0.274   3.967   3.944  0.0749  0.4052 -0.7727
21006SOL    HW264460   0.145   4.008   4.013  0.3842  0.7322 -0.3839
21007SOL     OW64461   6.021   6.341   4.574 -0.2794  0.6017 -0.7624
21007SOL    HW164462   6.043   6.420   4.623 -0.0408 -1.0179  1.9533
21007SOL    HW264463   5.925   6.342   4.568 -0.3385  0.6378  0.1216
21008SOL     OW64464   7.640   6.672   3.026  0.8729  0.4605  0.4206
21008SOL    HW164465   7.581   6.733   3.071  0.5594  1.7190 -1.5972
21008SOL    HW264466   7.584   6.602   2.995  0.9352  0.1059  1.0908
21009SOL     OW64467   6.681   4.049   4.030 -0.2302  0.0394 -0.3205
21009SOL    HW164468   6.614   4.061   3.962 -0.4071  0.2478 -0.1095
21009SOL    HW264469   6.683   4.132   4.077  0.0249 -0.0420 -0.1877
21010SOL     OW64470   5.982   3.496   2.953  0.5720 -0.2839  1.0341
21010SOL    HW164471   6.035   3.559   3.003  1.2036  0.5633 -0.6173
21010SOL    HW264472   5.896   3.501   2.993  0.2256  2.6785  0.2095
21011SOL     OW64473   6.037   6.151   2.938  0.3812  0.1682  0.0203
21011SOL    HW164474   5.957   6.105   2.962  1.0093 -0.2846  1.3588
21011SOL    HW264475   6.088   6.086   2.889 -0.3760  0.7059 -1.5472
21012SOL     OW64476   5.189   6.384   3.740  0.0169 -0.1459  0.8218
21012SOL    HW164477   5.121   6.367   3.675 -1.1329 -0.0341  1.9577
21012SOL    HW264478   5.145   6.437   3.807  1.4333  0.5878  1.2120
21013SOL     OW64479   0.105   4.446   3.994 -0.3334 -0.2899 -0.4828
21013SOL    HW164480   0.058   4.446   4.078  0.3575 -0.0867 -0.0883
21013SOL    HW264481   0.036   4.454   3.928 -0.7352  2.4241  0.1469
21014SOL     OW64482   6.595   6.469   2.446  0.4162 -0.0174  0.0624
21014SOL    HW164483   6.625   6.379   2.458  0.7854  0.3224  1.8083
21014SOL    HW264484   6.654   6.505   2.380  0.8658 -0.7644  0.0437
21015SOL     OW64485   6.002   4.440   6.534  0.1734 -0.3963  0.2554
21015SOL    HW164486   6.000   4.465   6.442  2.1518 -0.2142  0.2310
21015SOL    HW264487   5.932   4.375   6.543 -0.2310 -0.2058 -1.2970
21016SOL     OW64488   6.244   6.209   5.475 -0.4864 -0.1076  0.1625
21016SOL    HW164489   6.306   6.222   5.548  0.1985  0.6329 -0.5300
21016SOL    HW264490   6.273   6.128   5.434  0.5740  0.6511 -0.6545
21017SOL     OW64491   7.582   4.981   4.635  0.1701  0.4450 -0.6753
21017SOL    HW164492   7.627   4.937   4.707 -0.0608  2.0665  0.5160
21017SOL    HW264493   7.502   4.930   4.623  0.6302 -0.3684 -0.3970
21018SOL     OW64494   5.562   6.080   3.341  0.3809 -0.1101 -0.4663
21018SOL    HW164495   5.606   6.166   3.341 -1.0367  0.6478  0.0369
21018SOL    HW264496   5.489   6.091   3.401  0.8617 -2.0766  0.5441
21019SOL     OW64497   4.525   4.150   6.005 -0.2549 -0.2078  0.2735
21019SOL    HW164498   4.568   4.100   5.936 -0.6874 -1.0858  0.6275
21019SOL    HW264499   4.431   4.134   5.992 -0.3312 -0.6386  1.2254
21020SOL     OW64500   6.663   3.519   5.148 -0.2288 -0.2779 -0.1528
21020SOL    HW164501   6.645   3.535   5.055 -1.8210  2.3397  0.4751
21020SOL    HW264502   6.600   3.452   5.173  0.4819 -1.3051 -0.9988
21021SOL     OW64503   5.880   4.765   4.233 -0.4164 -0.3888  0.0489
21021SOL    HW164504   5.885   4.860   4.220 -1.1288  0.1767  3.0864
21021SOL    HW264505   5.971   4.737   4.243 -0.2214  0.0400 -0.4802
21022SOL     OW64506   6.431   4.868   5.095  0.6577  0.6396  0.5909
21022SOL    HW164507   6.368   4.799   5.118  0.8008  0.3175  0.0198
21022SOL    HW264508   6.385   4.922   5.030  0.3945  1.3292  1.3299
21023SOL     OW64509   5.026   3.032   5.375  0.4836  0.0053 -0.1331
21023SOL    HW164510   5.093   3.090   5.409 -0.4816  0.1523  1.6459
21023SOL    HW264511   4.990   3.078   5.299  2.5486 -0.2202 -1.3074
21024SOL     OW64512   5.618   4.289   3.864 -0.1567  0.4123  0.2434
21024SOL    HW164513   5.600   4.297   3.958 -1.5198  0.3100  0.0098
21024SOL    HW264514   5.592   4.200   3.842  2.4196 -0.3928  0.2085
21025SOL     OW64515   5.977   3.751   4.230 -0.2895 -0.5450 -0.1601
21025SOL    HW164516   5.908   3.769   4.166 -0.2420  2.9173  0.5694
21025SOL    HW264517   5.943   3.786   4.312  1.3046 -1.2180  0.8263
21026SOL     OW64518   5.652   5.119   5.236 -0.8315  0.1058 -0.0396
21026SOL    HW164519   5.733   5.149   5.278 -1.0014  0.2300  0.1979
21026SOL    HW264520   5.624   5.192   5.181 -0.0490 -0.4281 -1.1956
21027SOL     OW64521   5.556   4.304   4.782  0.3672 -0.4874  0.3852
21027SOL    HW164522   5.487   4.364   4.813  1.1154 -0.2543  1.6692
21027SOL    HW264523   5.561   4.238   4.850  3.5699  1.2146  2.0089
21028SOL     OW64524   7.039   5.376   3.912  0.2575 -0.7320 -0.4398
21028SOL    HW164525   6.956   5.337   3.885  1.3877 -1.7282 -2.7271
21028SOL    HW264526   7.077   5.410   3.832  1.0913  1.7405  0.8978
21029SOL     OW64527   7.241   5.213   4.055 -0.1907 -0.1473 -0.3021
21029SOL    HW164528   7.319   5.257   4.019 -0.1610 -1.0761 -1.4376
21029SOL    HW264529   7.168   5.270   4.029 -0.0021  0.1429 -0.2096
21030SOL     OW64530   5.426   3.881   5.166  0.0860 -0.1673  0.1659
21030SOL    HW164531   5.358   3.818   5.189  0.5933 -0.4350  0.9762
21030SOL    HW264532   5.421   3.887   5.070 -1.6024  0.4330  0.2634
21031SOL     OW64533   6.157   3.440   3.673 -0.0296  0.1076  0.1192
21031SOL    HW164534   6.151   3.535   3.664 -2.6154  0.0587  0.5735
21031SOL    HW264535   6.160   3.425   3.768  3.1703 -0.2621  0.0904
21032SOL     OW64536   5.621   4.018   5.268 -0.1697  0.4866 -0.4834
21032SOL    HW164537   5.541   3.973   5.242  0.3604 -0.4045 -0.6087
21032SOL    HW264538   5.633   3.993   5.360  1.5540 -1.8884 -1.2489
21033SOL     OW64539   0.261   3.894   4.751  0.1492 -0.2869 -0.3880
21033SOL    HW164540   0.340   3.904   4.698  0.6179 -1.9720 -0.0722
21033SOL    HW264541   0.255   3.800   4.768 -1.5038 -0.1095  0.2551
21034SOL     OW64542   5.502   6.734   6.201 -0.3640 -0.3162  0.0980
21034SOL    HW164543   5.502   6.666   6.135 -0.1103 -0.7552  0.5456
21034SOL    HW264544   5.437   6.797   6.170  0.6467  0.1294 -1.2071
21035SOL     OW64545   7.839   6.140   3.421  0.5116  0.4358  0.3298
21035SOL    HW164546   7.807   6.229   3.400 -0.4124 -0.2033 -1.1829
21035SOL    HW264547   7.768   6.101   3.473 -0.2108 -0.2039 -1.0744
21036SOL     OW64548   7.051   4.910   4.723 -0.2587  0.1341 -0.3056
21036SOL    HW164549   6.981   4.975   4.730 -0.5879 -0.3236  0.9914
21036SOL    HW264550   7.009   4.828   4.747  0.5535 -0.2724 -0.2472
21037SOL     OW64551   6.506   5.666   2.945  0.4112 -0.0178 -0.2681
21037SOL    HW164552   6.527   5.579   2.979 -1.7943 -0.2947  0.4840
21037SOL    HW264553   6.516   5.724   3.021  0.9792  0.2603 -0.5482
21038SOL     OW64554   6.135   3.873   4.021  0.4385 -0.2212  0.3618
21038SOL    HW164555   6.203   3.936   4.045 -0.4158  0.0473  2.3555
21038SOL    HW264556   6.134   3.810   4.093  0.0314 -1.4646 -0.6987
21039SOL     OW64557   6.529   5.694   5.156  0.3452  0.0547  0.3393
21039SOL    HW164558   6.462   5.636   5.121 -0.5152  0.8795  0.5641
21039SOL    HW264559   6.594   5.636   5.195 -0.4652 -0.7509  0.5158
21040SOL     OW64560   7.833   5.779   3.150 -0.6777  0.1293 -0.3200
21040SOL    HW164561   7.822   5.718   3.223  2.2069  0.0626  0.1790
21040SOL    HW264562   7.911   5.829   3.172 -0.2637  0.7853 -2.9229
21041SOL     OW64563   6.412   5.001   6.038 -0.0673 -0.0218  0.0584
21041SOL    HW164564   6.476   5.042   5.980  0.0110  1.6755  1.2767
21041SOL    HW264565   6.340   5.064   6.043  0.7238  0.8438  3.1894
21042SOL     OW64566   5.590   7.094   5.418  0.1592 -0.1214  0.0549
21042SOL    HW164567   5.629   7.168   5.466  1.9617 -0.8076 -0.2834
21042SOL    HW264568   5.546   7.135   5.344  2.7783  0.5919 -1.2521
21043SOL     OW64569   7.450   5.416   5.982  0.2782  0.3599 -0.4040
21043SOL    HW164570   7.356   5.398   5.977 -0.5225  3.3721  1.5926
21043SOL    HW264571   7.471   5.453   5.896  0.0132 -1.4549 -1.3173
21044SOL     OW64572   6.260   3.922   3.129 -0.1632 -0.1779 -1.1336
21044SOL    HW164573   6.252   4.000   3.073 -2.7304  0.3134 -0.2472
21044SOL    HW264574   6.349   3.926   3.163  0.3113  1.4441 -2.4226
21045SOL     OW64575   5.809   4.426   4.860  0.5582  0.0443 -0.0332
21045SOL    HW164576   5.819   4.503   4.804 -1.3758  0.0244 -0.4845
21045SOL    HW264577   5.719   4.397   4.844  0.9997 -1.8416  0.7323
21046SOL     OW64578   7.336   4.658   5.969  0.1910  0.1361  0.4248
21046SOL    HW164579   7.249   4.637   6.002  0.3972 -2.7311 -0.6268
21046SOL    HW264580   7.328   4.746   5.934 -2.0663  0.2186  1.0138
21047SOL     OW64581   7.170   4.347   5.185  0.1452  0.3177 -0.5394
21047SOL    HW164582   7.226   4.271   5.164 -0.1555  0.2933 -1.2501
21047SOL    HW264583   7.195   4.413   5.121 -0.8029  0.2276 -1.0153
21048SOL     OW64584   6.702   4.678   4.107  0.3629 -0.2676 -0.0956
21048SOL    HW164585   6.756   4.657   4.183  1.7700  1.2846 -0.5993
21048SOL    HW264586   6.763   4.677   4.033 -0.5412  0.3131 -0.8789
21049SOL     OW64587   6.736   4.442   5.656 -0.3995  0.3010  0.0148
21049SOL    HW164588   6.709   4.485   5.737 -1.5805  0.6260 -0.5256
21049SOL    HW264589   6.798   4.502   5.616 -1.5601  1.2600 -0.4280
21050SOL     OW64590   0.243   6.110   3.608 -0.3936 -0.7620 -0.4613
21050SOL    HW164591   0.198   6.194   3.610  0.9851  0.0830  3.1310
21050SOL    HW264592   0.307   6.118   3.537 -0.6888  1.0155 -0.5724
21051SOL     OW64593   4.273   5.741   6.663 -0.6500  0.4140  0.2367
21051SOL    HW164594   4.287   5.742   6.569 -0.5254  1.0295  0.2537
21051SOL    HW264595   4.181   5.719   6.674 -0.6180  0.1506 -0.0223
21052SOL     OW64596   6.248   3.800   3.770 -0.5202 -0.4980  0.7532
21052SOL    HW164597   6.344   3.801   3.763 -0.3756  4.1314 -0.2186
21052SOL    HW264598   6.230   3.815   3.863 -0.0409  1.8559  0.5405
21053SOL     OW64599   6.635   4.997   3.799  0.0965  0.0651  0.0724
21053SOL    HW164600   6.698   5.002   3.727 -0.2533 -0.7537 -0.2954
21053SOL    HW264601   6.557   4.957   3.761 -0.2165 -0.0517  0.8183
21054SOL     OW64602   5.363   2.148   5.662  0.4855  0.8219  0.2981
21054SOL    HW164603   5.442   2.096   5.674  1.1003  1.6446 -0.1215
21054SOL    HW264604   5.340   2.178   5.750  0.6144  0.5513  0.4248
21055SOL     OW64605   6.160   4.409   4.620 -0.6489 -0.0305 -0.2407
21055SOL    HW164606   6.079   4.446   4.584 -0.2733  0.1844 -0.8852
21055SOL    HW264607   6.131   4.351   4.690 -1.5092 -1.3907 -1.6711
21056SOL     OW64608   3.537   6.082   2.464 -0.0326  0.0804  0.3088
21056SOL    HW164609   3.459   6.123   2.500 -1.4433 -0.1386 -2.2473
21056SOL    HW264610   3.529   5.989   2.488 -0.2814  0.1645  0.5453
21057SOL     OW64611   7.500   7.508   5.033 -0.0155 -0.6925  0.1009
21057SOL    HW164612   7.482   7.415   5.018  2.3618 -1.3124  0.6571
21057SOL    HW264613   7.594   7.517   5.017  0.3059  1.0887  2.4385
21058SOL     OW64614   6.372   3.917   8.387 -0.4058  0.4358 -0.3216
21058SOL    HW164615   6.301   3.979   8.404 -0.8923 -0.5418  1.3808
21058SOL    HW264616   6.353   3.843   8.444  0.9047 -0.7114 -1.3221
21059SOL     OW64617   5.241   5.019   5.266 -0.3505 -0.6584  0.2099
21059SOL    HW164618   5.271   5.034   5.176 -0.3270  0.8971  0.4534
21059SOL    HW264619   5.219   4.926   5.268 -0.8867 -0.6198 -1.5716
21060SOL     OW64620   7.785   5.584   6.900 -0.1760 -0.1235  0.2595
21060SOL    HW164621   7.719   5.583   6.831  0.0208  1.5439 -0.0020
21060SOL    HW264622   7.769   5.667   6.946  1.0908 -0.1801  0.8200
21061SOL     OW64623   0.012   0.138   7.920  0.1137  0.3602 -0.0986
21061SOL    HW164624  -0.042   0.102   7.849  0.2011  0.0083  0.0116
21061SOL    HW264625   0.029   0.228   7.893 -1.3665  0.7985  0.3421
21062SOL     OW64626   7.039   3.713   5.515 -0.4458  0.3436  0.6083
21062SOL    HW164627   6.986   3.702   5.437 -1.7725 -0.0515  1.5254
21062SOL    HW264628   7.117   3.660   5.500 -0.1150  1.2138 -0.9058
21063SOL     OW64629   5.535   5.416   5.053  0.4612 -0.2845  0.8028
21063SOL    HW164630   5.501   5.495   5.011 -0.1737 -0.0844  1.6519
21063SOL    HW264631   5.626   5.411   5.025 -0.1989 -0.7854 -1.4887
21064SOL     OW64632   5.834   6.244   6.160 -0.3119  0.1685  0.1237
21064SOL    HW164633   5.874   6.163   6.192  0.1583  0.2452 -0.2465
21064SOL    HW264634   5.741   6.224   6.153 -0.5117  0.2961  1.9719
21065SOL     OW64635   5.515   3.970   6.308  0.4706 -0.2426  0.7502
21065SOL    HW164636   5.571   4.043   6.285  1.5941 -0.9435  1.1996
21065SOL    HW264637   5.458   3.959   6.232  1.3969  0.0435 -0.0067
21066SOL     OW64638   5.150   5.135   6.928 -0.0931 -0.5671  0.4323
21066SOL    HW164639   5.072   5.168   6.973  0.1060 -0.0615  0.4068
21066SOL    HW264640   5.117   5.065   6.872 -0.4907 -0.5322  0.6199
21067SOL     OW64641   6.647   5.708   8.842  0.6036 -0.1293  0.1153
21067SOL    HW164642   6.734   5.734   8.812  0.5076  0.4233  0.3023
21067SOL    HW264643   6.613   5.652   8.773  0.8969  0.0904 -0.2090
21068SOL     OW64644   4.279   6.987   7.079  0.2718  0.1603  0.1192
21068SOL    HW164645   4.283   6.892   7.089 -1.6626  0.1372  1.3083
21068SOL    HW264646   4.306   7.021   7.165  1.0457  0.7005 -0.3279
21069SOL     OW64647   6.517   4.908   8.178 -0.7095 -0.0785 -0.0480
21069SOL    HW164648   6.510   4.958   8.260  0.1382 -0.4972  0.2994
21069SOL    HW264649   6.516   4.816   8.206  0.9844 -0.2271 -0.3422
21070SOL     OW64650   6.421   5.320   6.410  0.2573  0.4679  0.5869
21070SOL    HW164651   6.503   5.370   6.402  1.4429 -1.3738  0.4995
21070SOL    HW264652   6.407   5.283   6.323  0.1989 -0.4794  0.9881
21071SOL     OW64653   6.461   4.617   8.218 -0.0646  0.4037 -0.1871
21071SOL    HW164654   6.431   4.569   8.141  2.1126  2.2565 -2.3455
21071SOL    HW264655   6.467   4.551   8.287  0.5462 -1.9523 -2.3615
21072SOL     OW64656   5.353   5.234   6.541 -0.0782  0.0406 -0.5400
21072SOL    HW164657   5.372   5.270   6.628 -0.5417 -2.1945  0.5511
21072SOL    HW264658   5.315   5.308   6.493  0.3144  1.3729  1.0958
21073SOL     OW64659   6.120   4.364   5.676  0.2802 -0.0017  0.3331
21073SOL    HW164660   6.208   4.329   5.676  0.4535  0.3177 -1.3818
21073SOL    HW264661   6.125   4.442   5.620 -0.6146  1.3380  2.0195
21074SOL     OW64662   5.254   5.064   4.187  0.2147  0.2714 -0.4631
21074SOL    HW164663   5.306   5.006   4.241  2.8302  2.8242  0.0073
21074SOL    HW264664   5.168   5.066   4.230  1.9517  1.6496  3.3776
21075SOL     OW64665   5.816   4.613   6.697 -0.0554 -0.6130  0.4362
21075SOL    HW164666   5.887   4.566   6.653  0.7127  0.2773  0.6842
21075SOL    HW264667   5.859   4.658   6.770 -0.6001  1.0902 -0.2448
21076SOL     OW64668   4.963   6.709   6.723 -0.0763 -0.3732  0.1161
21076SOL    HW164669   4.964   6.803   6.702  0.8653 -0.3294  0.3339
21076SOL    HW264670   4.929   6.667   6.644 -0.2782  0.1268 -0.0682
21077SOL     OW64671   6.337   5.920   5.150 -0.1503 -0.3369  0.4936
21077SOL    HW164672   6.241   5.930   5.152 -0.2054 -0.0184 -1.3789
21077SOL    HW264673   6.351   5.827   5.133 -0.2056 -0.1423 -0.7373
21078SOL     OW64674   7.316   4.275   7.306 -0.3212  0.4516  0.1805
21078SOL    HW164675   7.236   4.234   7.272 -0.1848  1.2486 -1.1517
21078SOL    HW264676   7.357   4.206   7.358 -1.9687  0.0834  1.0914
21079SOL     OW64677   5.672   3.800   6.826  0.0001  0.3363  0.2477
21079SOL    HW164678   5.603   3.734   6.838  0.4705 -0.2039  0.0150
21079SOL    HW264679   5.625   3.879   6.797 -0.4283 -0.3397 -0.9745
21080SOL     OW64680   0.969   6.193   5.167  0.0637  0.0105  0.3525
21080SOL    HW164681   0.915   6.127   5.211 -1.0235  0.9553  0.4912
21080SOL    HW264682   1.036   6.142   5.122 -1.0577 -1.2471  0.0009
21081SOL     OW64683   5.737   6.928   5.595  0.1404 -0.5211  0.1204
21081SOL    HW164684   5.657   6.948   5.547 -0.5520  1.7469  2.0282
21081SOL    HW264685   5.707   6.914   5.685  1.8810  0.5639  0.9062
21082SOL     OW64686   1.150   5.124   5.757 -0.2133 -0.0557  0.0458
21082SOL    HW164687   1.115   5.053   5.705  0.4934 -0.9926  0.8147
21082SOL    HW264688   1.244   5.125   5.738 -0.0456 -0.0133  0.8145
21083SOL     OW64689   6.768   3.189   6.618  0.2142  0.3972  0.2094
21083SOL    HW164690   6.690   3.133   6.616  0.3938  0.1527  0.1528
21083SOL    HW264691   6.837   3.134   6.653  0.9931 -0.1883 -2.0438
21084SOL     OW64692   6.094   2.839   8.688  0.2335  0.1109  0.5862
21084SOL    HW164693   6.114   2.931   8.672  0.0033 -0.0540 -0.7612
21084SOL    HW264694   6.104   2.828   8.782  2.2655  1.0389  0.5273
21085SOL     OW64695   5.273   7.910   6.908 -0.0460 -0.2002  0.1131
21085SOL    HW164696   5.239   7.994   6.939 -1.5086 -0.5798 -0.3431
21085SOL    HW264697   5.308   7.927   6.821  0.5775  0.1191  0.4204
21086SOL     OW64698   7.417   3.165   4.995  0.4829 -0.0343  0.2873
21086SOL    HW164699   7.398   3.084   4.948  0.2309 -0.0802  0.4703
21086SOL    HW264700   7.459   3.221   4.930  0.7403 -0.3434  0.1821
21087SOL     OW64701   5.880   4.442   9.210 -0.2559  0.0229 -0.0969
21087SOL    HW164702   5.885   4.433   9.115 -0.5896  1.1373 -0.2381
21087SOL    HW264703   5.818   4.374   9.237 -0.1994 -0.2670 -0.6812
21088SOL     OW64704   7.691   5.908   6.068 -0.9149  0.0924  0.1952
21088SOL    HW164705   7.626   5.978   6.070  0.4616  1.4053  0.0657
21088SOL    HW264706   7.676   5.859   6.150 -2.0174  0.3835  0.1859
21089SOL     OW64707   6.132   4.987   4.139 -0.3487  0.4789 -0.5633
21089SOL    HW164708   6.175   4.963   4.058 -0.2589 -0.9991 -0.0995
21089SOL    HW264709   6.041   5.003   4.114 -0.8934 -2.2989 -0.6434
21090SOL     OW64710   6.834   5.516   6.034  0.2552 -0.5117  0.0221
21090SOL    HW164711   6.892   5.584   6.070 -0.0591  0.1815 -0.7428
21090SOL    HW264712   6.852   5.516   5.940  2.5115 -3.6764  0.3084
21091SOL     OW64713   5.643   2.958   6.581 -0.0734 -0.2452 -0.5420
21091SOL    HW164714   5.712   3.024   6.581 -0.9563  0.7095 -0.3651
21091SOL    HW264715   5.581   2.988   6.514 -1.5519  0.2965  0.9947
21092SOL     OW64716   7.278   5.159   6.288 -0.1919 -0.2386  0.1682
21092SOL    HW164717   7.359   5.208   6.304  0.3425 -0.4916 -1.5829
21092SOL    HW264718   7.209   5.225   6.292  0.0473 -0.0371  1.7965
21093SOL     OW64719   7.082   4.954   6.411 -0.0828  0.1119  0.4842
21093SOL    HW164720   7.088   4.886   6.344  1.7103  1.6438 -1.0181
21093SOL    HW264721   7.131   5.028   6.375 -0.8727  1.7675  2.5977
21094SOL     OW64722   5.454   5.137   4.491  0.0473 -0.2787 -0.4601
21094SOL    HW164723   5.499   5.194   4.554  0.5192 -0.0019 -1.0436
21094SOL    HW264724   5.361   5.148   4.511  0.1707  0.1768 -0.1243
21095SOL     OW64725   7.973   4.814   6.477 -0.8986  0.3141 -0.1606
21095SOL    HW164726   7.981   4.719   6.465 -0.4892  0.4217 -0.7634
21095SOL    HW264727   8.058   4.842   6.509 -0.5910  0.6494 -1.2080
21096SOL     OW64728   7.575   3.896   5.837 -0.3123 -0.4980 -0.8835
21096SOL    HW164729   7.653   3.843   5.853  2.6286  4.1677  3.2583
21096SOL    HW264730   7.522   3.885   5.916 -1.2354  0.2467 -1.3767
21097SOL     OW64731   7.123   5.269   7.855  0.3486  0.1006 -0.1468
21097SOL    HW164732   7.112   5.308   7.768  0.0952 -0.4140 -0.3482
21097SOL    HW264733   7.057   5.200   7.859  1.7377 -1.2972 -0.3539
21098SOL     OW64734   6.574   5.353   8.252 -0.2634  0.0865 -0.0866
21098SOL    HW164735   6.572   5.442   8.216 -0.2919 -0.6880 -2.0761
21098SOL    HW264736   6.621   5.301   8.187  0.4637 -1.2264  1.4192
21099SOL     OW64737   6.588   4.228   6.363  0.6109  0.1484 -0.8769
21099SOL    HW164738   6.506   4.270   6.339 -0.1571 -1.8754 -2.0712
21099SOL    HW264739   6.572   4.188   6.448  0.3647 -0.1970 -1.0841
21100SOL     OW64740   7.758   3.055   6.019 -0.1899 -0.6295 -0.1163
21100SOL    HW164741   7.808   3.120   6.069 -0.5390 -0.6889  0.3162
21100SOL    HW264742   7.824   3.000   5.978  0.1299  0.3644 -0.9808
21101SOL     OW64743   7.174   5.454   6.026 -0.0623  0.0958 -0.3093
21101SOL    HW164744   7.125   5.490   6.100  0.2665  0.8886 -0.4666
21101SOL    HW264745   7.111   5.397   5.981 -0.7583  0.8471 -0.3219
21102SOL     OW64746   5.096   5.265   5.188 -0.0465 -0.0610 -0.3090
21102SOL    HW164747   5.147   5.254   5.108 -0.6045 -1.2545 -0.5194
21102SOL    HW264748   5.074   5.176   5.216  0.7847  0.2820  1.6059
21103SOL     OW64749   4.935   5.607   6.789 -0.4701 -0.2497  1.0377
21103SOL    HW164750   4.872   5.615   6.718 -0.2636 -0.5126  0.8213
21103SOL    HW264751   5.016   5.642   6.753  0.2222 -2.4001  0.3604
21104SOL     OW64752   6.631   4.127   6.002 -0.6218  0.5880  0.1360
21104SOL    HW164753   6.540   4.151   6.016 -1.3299 -2.6888  2.0606
21104SOL    HW264754   6.636   4.034   6.024  2.6913 -0.0413 -2.3589
21105SOL     OW64755   0.086   4.212   8.432 -0.5016 -0.3007  0.2454
21105SOL    HW164756   0.039   4.236   8.512 -0.9824 -0.5810  0.0517
21105SOL    HW264757   0.067   4.118   8.420  0.0368 -0.3967  0.1160
21106SOL     OW64758   6.942   6.100   7.898 -0.0040 -0.4679 -0.0058
21106SOL    HW164759   6.952   6.103   7.993  0.9626  0.4313 -0.1199
21106SOL    HW264760   6.848   6.110   7.883 -0.1301 -0.3038  0.8400
21107SOL     OW64761   5.334   3.908   6.123 -0.2979 -0.1807 -0.4473
21107SOL    HW164762   5.293   3.829   6.087  0.0284  0.6761 -2.9239
21107SOL    HW264763   5.266   3.975   6.115  0.4564  0.4979 -1.4849
21108SOL     OW64764   5.087   4.876   6.712 -0.4928  0.0516  0.2666
21108SOL    HW164765   5.083   4.814   6.784 -0.2072 -0.2167  0.0546
21108SOL    HW264766   5.145   4.835   6.648  1.0220  1.2503  0.8047
21109SOL     OW64767   5.442   7.852   6.406  0.8643  0.4343 -0.1040
21109SOL    HW164768   5.415   7.941   6.431  1.7938  0.5500  0.5385
21109SOL    HW264769   5.430   7.849   6.311 -0.5710  0.7527  0.0554
21110SOL     OW64770   5.820   4.037   6.682 -0.2019  0.2518 -0.0853
21110SOL    HW164771   5.766   3.960   6.703  0.3841  0.1574  1.1643
21110SOL    HW264772   5.905   4.000   6.658  0.2898  0.5109  1.1823
21111SOL     OW64773   5.912   5.595   6.885 -0.2298  0.1929 -0.3758
21111SOL    HW164774   5.877   5.531   6.823  0.5567 -1.6648  1.0136
21111SOL    HW264775   5.838   5.652   6.904 -0.9996 -0.3664 -1.5468
21112SOL     OW64776   5.360   5.141   5.480 -0.0124 -0.0290 -0.2646
21112SOL    HW164777   5.326   5.091   5.554  1.3192 -1.1799 -0.3975
21112SOL    HW264778   5.323   5.099   5.403  2.4590 -1.9990 -0.4715
21113SOL     OW64779   6.013   5.794   5.864 -0.9816  0.2842  0.0803
21113SOL    HW164780   5.930   5.842   5.870 -0.6308  0.9468 -0.3056
21113SOL    HW264781   5.989   5.708   5.829 -1.5380  0.3758  0.2292
21114SOL     OW64782   6.279   6.501   6.887 -0.8783 -0.2861  0.4522
21114SOL    HW164783   6.237   6.416   6.876 -1.9765  0.1407  1.1589
21114SOL    HW264784   6.288   6.535   6.798 -1.3208 -0.7227  0.2341
21115SOL     OW64785   4.760   6.848   6.437  0.2334  0.0823 -0.4985
21115SOL    HW164786   4.670   6.830   6.463  0.9390  0.4902  2.5699
21115SOL    HW264787   4.804   6.763   6.443  0.8253  0.4910  1.7795
21116SOL     OW64788   6.125   5.211   6.026  0.5995 -0.0247  0.6293
21116SOL    HW164789   6.060   5.235   6.092 -1.5421 -2.0365 -0.5936
21116SOL    HW264790   6.102   5.122   6.001  2.6364 -0.0871 -1.3363
21117SOL     OW64791   7.880   5.088   3.878  0.7233  0.6859  0.1982
21117SOL    HW164792   7.797   5.103   3.923  0.3634  0.9797 -0.5581
21117SOL    HW264793   7.937   5.052   3.946 -0.3695 -0.6533  0.4665
21118SOL     OW64794   6.301   4.283   6.654  0.8664  0.1047 -0.0601
21118SOL    HW164795   6.279   4.302   6.563  1.3393  1.4068  0.0794
21118SOL    HW264796   6.262   4.355   6.703  0.0399 -0.9320  0.8571
21119SOL     OW64797   4.829   4.673   4.543  0.1340 -0.0371  0.0748
21119SOL    HW164798   4.773   4.738   4.499 -2.4563 -3.1246 -1.5881
21119SOL    HW264799   4.885   4.640   4.473  0.0966 -0.9060  0.4533
21120SOL     OW64800   5.823   5.430   7.575  0.5445 -0.3169 -0.0337
21120SOL    HW164801   5.777   5.376   7.510  0.7552 -0.7161  0.1443
21120SOL    HW264802   5.789   5.518   7.561 -1.9601 -0.9346  1.5924
21121SOL     OW64803   6.121   3.459   6.830 -0.2456 -0.2084  0.0902
21121SOL    HW164804   6.143   3.550   6.811 -0.0996 -0.4412 -0.9551
21121SOL    HW264805   6.203   3.421   6.862  0.0807 -0.3079 -0.8291
21122SOL     OW64806   4.964   5.415   4.868 -0.2815  0.7611  0.7053
21122SOL    HW164807   4.912   5.490   4.839 -2.8569 -1.4595 -1.0013
21122SOL    HW264808   4.917   5.381   4.944  0.2687  0.2924  0.8434
21123SOL     OW64809   6.918   5.639   8.491  0.1629  0.4059 -0.0898
21123SOL    HW164810   6.910   5.552   8.452 -0.4378  0.9525 -1.2565
21123SOL    HW264811   6.978   5.686   8.432 -1.7482  1.6483 -1.1477
21124SOL     OW64812   5.189   4.839   4.540  0.3975 -0.5949 -0.1155
21124SOL    HW164813   5.201   4.804   4.453  0.4235  0.8272 -0.7161
21124SOL    HW264814   5.107   4.888   4.536  0.1857 -0.8485  0.7693
21125SOL     OW64815   7.051   5.105   7.433 -0.4824 -0.0628  0.2622
21125SOL    HW164816   7.007   5.146   7.359  1.3961  0.6934 -0.4903
21125SOL    HW264817   7.066   5.177   7.494  1.9739  0.2795 -0.6438
21126SOL     OW64818   5.825   4.710   6.154 -0.0696  0.1431 -0.1530
21126SOL    HW164819   5.787   4.622   6.149 -1.0821  0.5620 -0.1608
21126SOL    HW264820   5.776   4.752   6.225 -1.2232  1.4482 -1.6427
21127SOL     OW64821   6.707   6.291   8.758  0.0319  0.0815  0.3570
21127SOL    HW164822   6.628   6.245   8.787  1.4064 -1.8755  1.1990
21127SOL    HW264823   6.714   6.366   8.817 -1.5991  0.7747 -0.2570
21128SOL     OW64824   4.731   4.816   4.783  0.1730 -0.3320  0.2979
21128SOL    HW164825   4.768   4.753   4.721  0.8580 -0.6722  1.0298
21128SOL    HW264826   4.658   4.769   4.824 -0.1110 -0.2009 -0.0541
21129SOL     OW64827   5.407   4.838   6.848 -0.0942 -0.6872 -0.0290
21129SOL    HW164828   5.426   4.812   6.758  0.6359 -0.5110  0.0735
21129SOL    HW264829   5.460   4.779   6.902  1.2383  0.6991  0.2244
21130SOL     OW64830   6.592   5.332   7.160  0.0925 -0.3290  0.0819
21130SOL    HW164831   6.555   5.333   7.249  0.1322  0.9683  0.1064
21130SOL    HW264832   6.581   5.422   7.129  1.2765 -0.4493 -0.7363
21131SOL     OW64833   5.063   5.432   5.385 -0.2287  0.2637 -0.2528
21131SOL    HW164834   5.081   5.363   5.320  0.8540 -0.7116  1.0297
21131SOL    HW264835   4.969   5.424   5.402  0.0534 -1.6665  0.6557
21132SOL     OW64836   5.838   4.085   6.346  0.2277 -0.3419  0.2295
21132SOL    HW164837   5.861   4.079   6.253  2.1546  2.0590  0.4498
21132SOL    HW264838   5.791   4.168   6.354  3.9620  1.8560  1.9348
21133SOL     OW64839   6.036   4.285   9.001  0.0184  0.1587 -0.1091
21133SOL    HW164840   6.000   4.220   8.940 -1.3587  0.1893  0.6138
21133SOL    HW264841   6.095   4.235   9.057  0.4900 -0.0692 -0.7951
21134SOL     OW64842   7.821   6.020   3.780  0.1410 -0.3040  0.1874
21134SOL    HW164843   7.914   6.041   3.786  0.2818 -0.9118  0.2551
21134SOL    HW264844   7.815   5.961   3.704 -0.2690  0.1652 -0.1464
21135SOL     OW64845   5.819   5.026   5.711  0.1143  0.0901  0.1533
21135SOL    HW164846   5.879   5.015   5.638  0.4735 -0.2430  0.4940
21135SOL    HW264847   5.847   4.961   5.776  0.2863  0.8891  0.8988
21136SOL     OW64848   6.098   4.861   4.891 -0.0035 -0.3250  0.1525
21136SOL    HW164849   6.152   4.823   4.822 -0.0661 -0.5285  0.2119
21136SOL    HW264850   6.092   4.954   4.870 -0.1001 -0.4041 -0.1637
21137SOL     OW64851   5.820   3.867   5.615  0.3746 -0.5039 -0.1211
21137SOL    HW164852   5.738   3.905   5.586  0.5222 -0.7933 -0.9230
21137SOL    HW264853   5.826   3.783   5.570  0.9819 -0.6023  0.1283
21138SOL     OW64854   5.352   3.799   6.521 -0.3821  0.0523  0.0289
21138SOL    HW164855   5.441   3.767   6.507 -0.7053 -0.2002 -1.6901
21138SOL    HW264856   5.359   3.893   6.510  0.1778  0.4384  2.9467
21139SOL     OW64857   6.962   4.267   7.445 -0.4600 -0.1557 -0.2965
21139SOL    HW164858   6.941   4.282   7.353  3.0007 -0.7465 -1.3223
21139SOL    HW264859   6.949   4.173   7.457  2.9049 -0.9001 -1.4738
21140SOL     OW64860   5.103   3.571   6.751 -0.1000  0.0900 -0.7662
21140SOL    HW164861   5.114   3.521   6.671  0.6401  1.3567 -1.4863
21140SOL    HW264862   5.043   3.642   6.727 -0.6987 -0.1116  0.0860
21141SOL     OW64863   6.057   4.180   6.827 -0.3357  0.3893 -0.1569
21141SOL    HW164864   5.979   4.231   6.847 -0.9928 -0.5294 -0.3610
21141SOL    HW264865   6.123   4.246   6.806 -0.6148  1.2423  1.4710
21142SOL     OW64866   1.241   4.533   7.113 -0.4547  0.2908 -0.4596
21142SOL    HW164867   1.219   4.472   7.183 -1.2940 -0.0747 -1.0200
21142SOL    HW264868   1.299   4.484   7.055 -0.8796  0.1125 -0.7444
21143SOL     OW64869   7.085   3.936   5.665 -0.7040 -0.2710 -0.2415
21143SOL    HW164870   7.057   3.858   5.617 -1.7887  0.0657 -0.1842
21143SOL    HW264871   7.089   4.005   5.598 -1.0492 -0.0816 -0.0752
21144SOL     OW64872   7.047   4.343   6.055 -0.1116  0.0729 -0.2043
21144SOL    HW164873   6.968   4.326   6.106  0.2395  1.6559  0.9402
21144SOL    HW264874   7.059   4.264   6.002 -2.0192 -0.5025  0.1536
21145SOL     OW64875   6.304   5.930   6.715  0.8313  0.3608  0.7084
21145SOL    HW164876   6.211   5.906   6.717  0.8861 -0.1066 -0.6534
21145SOL    HW264877   6.348   5.861   6.764  0.6605 -0.7208 -0.5804
21146SOL     OW64878   6.828   2.978   6.413 -0.2063  0.4488  0.2831
21146SOL    HW164879   6.907   2.986   6.359  0.5586 -0.1499  1.2760
21146SOL    HW264880   6.756   2.975   6.350  0.5541  1.0373 -0.6425
21147SOL     OW64881   5.967   5.060   5.106 -0.3072  0.1745 -0.0856
21147SOL    HW164882   5.946   4.966   5.099 -0.5990  0.2731 -0.5780
21147SOL    HW264883   5.969   5.090   5.016 -2.9170  1.2430  0.1425
21148SOL     OW64884   6.502   3.000   4.277  0.4125 -0.5246 -0.0612
21148SOL    HW164885   6.432   3.060   4.302  0.8626 -0.3074  0.7244
21148SOL    HW264886   6.504   2.935   4.348 -0.4790 -1.8407 -1.2021
21149SOL     OW64887   7.062   5.336   7.586 -0.0272  0.8840 -0.0946
21149SOL    HW164888   7.144   5.381   7.604 -0.1506  0.7532  0.8443
21149SOL    HW264889   6.999   5.406   7.571 -0.3676  1.1095  2.0068
21150SOL     OW64890   7.217   5.541   5.705 -0.3575 -0.3003  0.1605
21150SOL    HW164891   7.223   5.597   5.782 -1.8462 -2.1891  1.7663
21150SOL    HW264892   7.125   5.514   5.702 -0.1454 -0.9960 -1.7908
21151SOL     OW64893   5.340   5.283   5.821  0.0684  0.3663  0.0786
21151SOL    HW164894   5.376   5.224   5.887  0.1961  0.4844  0.1153
21151SOL    HW264895   5.304   5.225   5.753  0.0858  0.2475  0.1716
21152SOL     OW64896   0.761   5.298   5.782 -0.0350 -0.1303  0.0297
21152SOL    HW164897   0.773   5.219   5.835 -2.1139 -0.8383 -0.4514
21152SOL    HW264898   0.824   5.288   5.710  1.6109  0.0142  1.3932
21153SOL     OW64899   7.572   3.630   8.119 -0.2913  0.3464 -0.0625
21153SOL    HW164900   7.542   3.672   8.038 -0.1166  1.0734  0.2416
21153SOL    HW264901   7.601   3.543   8.092 -1.9808 -0.1270 -0.4958
21154SOL     OW64902   7.253   3.621   6.810  0.2262 -0.2819 -0.1599
21154SOL    HW164903   7.226   3.608   6.719 -0.5683 -1.4109  0.2081
21154SOL    HW264904   7.346   3.596   6.812  0.4963  0.6269 -0.8243
21155SOL     OW64905   5.793   5.982   6.377  0.5476  0.4451  0.4352
21155SOL    HW164906   5.732   6.056   6.387  0.5527  0.4735  0.2591
21155SOL    HW264907   5.782   5.931   6.457 -2.8809 -1.9055 -1.2465
21156SOL     OW64908   7.011   5.545   6.275  0.5009 -0.1183  0.1422
21156SOL    HW164909   7.017   5.577   6.365 -0.2683 -1.5523  0.7251
21156SOL    HW264910   7.020   5.624   6.221  0.6238  0.8050  1.4702
21157SOL     OW64911   5.747   4.850   7.038 -0.4990 -0.3219 -0.7642
21157SOL    HW164912   5.724   4.943   7.045 -0.3090 -0.2699 -0.8274
21157SOL    HW264913   5.663   4.806   7.027 -0.7732 -0.3287  1.0161
21158SOL     OW64914   6.634   5.140   5.916  0.5006  0.3809 -0.1433
21158SOL    HW164915   6.675   5.092   5.989 -0.7404 -1.2516 -0.4702
21158SOL    HW264916   6.700   5.137   5.846  1.2260  0.9237  0.4942
21159SOL     OW64917   5.345   5.621   6.456  0.1670  0.3430 -0.4407
21159SOL    HW164918   5.284   5.577   6.397 -1.4845  1.4094  0.3549
21159SOL    HW264919   5.370   5.701   6.410 -1.2870  1.2803  0.2961
21160SOL     OW64920   6.245   3.657   6.089 -0.3748 -0.6451  0.2386
21160SOL    HW164921   6.261   3.570   6.053  4.0352  0.0187  0.0696
21160SOL    HW264922   6.267   3.650   6.181 -2.9253 -0.2563  0.9720
21161SOL     OW64923   7.009   4.701   6.881  0.2409 -0.0334 -0.2378
21161SOL    HW164924   7.040   4.695   6.790  2.1147 -0.2049  0.3735
21161SOL    HW264925   7.033   4.616   6.919  0.5244  0.4700  0.7253
21162SOL     OW64926   7.631   5.314   7.784 -0.5196 -0.1989  0.6653
21162SOL    HW164927   7.642   5.361   7.701 -1.9627  0.3674  0.7757
21162SOL    HW264928   7.614   5.223   7.758 -0.2319 -0.1724  0.3747
21163SOL     OW64929   5.488   5.501   6.635  0.5887  0.0248 -0.1877
21163SOL    HW164930   5.455   5.556   6.564 -1.1613 -1.2522 -0.4574
21163SOL    HW264931   5.573   5.470   6.604  1.5970  2.4295 -0.0499
21164SOL     OW64932   6.210   2.718   7.238 -0.4507  0.2190 -0.2578
21164SOL    HW164933   6.200   2.734   7.144 -0.8199  1.4791 -0.0278
21164SOL    HW264934   6.225   2.805   7.275 -0.2466 -0.2726  0.8456
21165SOL     OW64935   6.023   6.850   4.804 -0.3653  0.6669  0.0140
21165SOL    HW164936   6.105   6.879   4.762  2.3022 -0.8273  3.6237
21165SOL    HW264937   5.980   6.931   4.830  2.0195  1.5791  1.4138
21166SOL     OW64938   4.892   3.956   5.613  0.1860 -0.1409 -0.4950
21166SOL    HW164939   4.890   3.946   5.708  0.3738  0.0365 -0.4709
21166SOL    HW264940   4.867   4.047   5.598  0.9832  0.0824 -0.5645
21167SOL     OW64941   5.529   4.780   8.953  0.4059 -0.4750  0.3143
21167SOL    HW164942   5.613   4.765   8.909 -0.0294  0.8546 -1.0577
21167SOL    HW264943   5.539   4.738   9.038  2.1857 -1.0108 -0.1108
21168SOL     OW64944   5.268   4.118   6.739 -0.0525 -0.0052  0.4546
21168SOL    HW164945   5.189   4.070   6.715  0.3276 -0.8572  0.8430
21168SOL    HW264946   5.260   4.129   6.834 -0.6272  1.6341  0.2438
21169SOL     OW64947   5.192   2.417   9.076  0.6543  0.6092  0.0261
21169SOL    HW164948   5.179   2.482   9.007  2.2035  0.0227 -0.8811
21169SOL    HW264949   5.194   2.467   9.157 -0.3451  1.4114 -0.4220
21170SOL     OW64950   5.033   3.151   6.965  0.3197  0.3581 -0.2874
21170SOL    HW164951   5.087   3.098   6.906  0.8596  0.8219 -0.2122
21170SOL    HW264952   5.033   3.103   7.048  0.1981  0.1030 -0.4318
21171SOL     OW64953   6.718   7.614   8.193 -0.0932 -0.6618 -0.1384
21171SOL    HW164954   6.728   7.704   8.223 -0.5006 -0.5052 -0.4663
21171SOL    HW264955   6.696   7.622   8.100 -1.9728 -1.0170  0.2309
21172SOL     OW64956   6.052   4.914   6.461  0.0588  0.0796 -0.2699
21172SOL    HW164957   5.958   4.897   6.464  0.1546 -0.4088  0.0014
21172SOL    HW264958   6.059   5.003   6.426 -0.4860 -0.0353 -0.6792
21173SOL     OW64959   5.578   2.697   7.284 -0.1535 -0.1489  0.0573
21173SOL    HW164960   5.654   2.642   7.302 -1.2884 -1.1638  2.0030
21173SOL    HW264961   5.556   2.736   7.369 -2.3049 -0.5502 -0.2584
21174SOL     OW64962   6.449   4.673   7.104 -0.1840 -0.1047 -0.4633
21174SOL    HW164963   6.361   4.710   7.112  0.2726  0.7557  0.9949
21174SOL    HW264964   6.471   4.644   7.192  0.1809 -2.3445 -1.2293
21175SOL     OW64965   6.213   4.571   5.531  0.0545 -0.3395 -0.1595
21175SOL    HW164966   6.261   4.651   5.556  2.2303 -1.5494 -0.2131
21175SOL    HW264967   6.165   4.596   5.453  0.8544  0.8921 -0.2915
21176SOL     OW64968   5.520   4.276   9.611  0.5943 -0.3070  0.3579
21176SOL    HW164969   5.601   4.323   9.630  1.4202 -1.8831  0.9008
21176SOL    HW264970   5.543   4.183   9.619 -0.8356 -0.8624 -1.1890
21177SOL     OW64971   6.337   5.167   6.826  0.9493  0.1266 -0.2128
21177SOL    HW164972   6.299   5.204   6.747 -0.3424 -0.6906  0.0045
21177SOL    HW264973   6.425   5.206   6.831  0.7435  0.8131 -1.5874
21178SOL     OW64974   6.538   4.457   6.127 -0.0009  0.2608 -0.3193
21178SOL    HW164975   6.444   4.475   6.119  0.1903  1.6341  0.2646
21178SOL    HW264976   6.543   4.372   6.170 -0.9802  0.2764 -0.1551
21179SOL     OW64977   5.509   4.410   4.361 -0.2091 -0.4299  0.1270
21179SOL    HW164978   5.559   4.491   4.355  0.5055 -0.9703 -2.0000
21179SOL    HW264979   5.418   4.438   4.371  0.1072  0.6055  0.1906
21180SOL     OW64980   5.081   6.634   6.306  0.9452 -0.3477  0.1132
21180SOL    HW164981   5.109   6.725   6.296 -0.8779  0.3361  0.7705
21180SOL    HW264982   5.061   6.605   6.217  0.4405  0.2876  0.0116
21181SOL     OW64983   7.037   4.711   7.910  0.1215  0.5176 -0.2229
21181SOL    HW164984   7.124   4.681   7.884  0.3273 -0.5458  1.5200
21181SOL    HW264985   6.991   4.631   7.937 -0.9913  1.2064  0.0070
21182SOL     OW64986   5.369   2.726   7.551 -0.5065 -0.2936 -0.3071
21182SOL    HW164987   5.348   2.818   7.568 -0.4808 -0.5481  1.3253
21182SOL    HW264988   5.453   2.713   7.595 -0.7601 -1.2104 -0.0749
21183SOL     OW64989   6.501   4.174   7.473 -0.2097 -0.4807 -0.1490
21183SOL    HW164990   6.544   4.219   7.546  0.6102  0.4469 -1.1569
21183SOL    HW264991   6.437   4.117   7.514  0.3402 -0.1042  1.3012
21184SOL     OW64992   6.546   6.035   4.426  0.2652 -0.0750  0.0606
21184SOL    HW164993   6.493   5.993   4.494  1.0582 -1.5124 -0.1683
21184SOL    HW264994   6.606   5.966   4.396  0.3431  0.6970 -1.6751
21185SOL     OW64995   7.747   4.233   8.998 -0.2797 -0.6235 -0.5562
21185SOL    HW164996   7.750   4.324   9.028 -0.5562 -1.1841  1.3599
21185SOL    HW264997   7.657   4.221   8.967 -0.3049 -0.2909 -0.6182
21186SOL     OW64998   5.633   5.703   5.991  0.5190  0.3899 -0.0388
21186SOL    HW164999   5.632   5.683   6.084  1.0744  1.3541  0.1955
21186SOL    HW265000   5.628   5.618   5.947 -0.1378 -0.0509  0.8587
21187SOL     OW65001   7.064   4.148   6.287  0.3832  0.6737  0.0819
21187SOL    HW165002   6.987   4.184   6.242  1.1435 -0.3907 -2.2019
21187SOL    HW265003   7.044   4.159   6.380 -3.5402 -1.4846 -0.2755
21188SOL     OW65004   5.931   5.082   6.967  0.1871 -0.4534  0.0871
21188SOL    HW165005   5.978   5.161   6.941  0.6168 -0.9397 -0.6367
21188SOL    HW265006   5.883   5.055   6.889  0.7683 -1.4081  0.0374
21189SOL     OW65007   4.309   5.265   6.531  0.0720  0.5580 -0.3014
21189SOL    HW165008   4.327   5.177   6.563  0.4996  0.2930 -1.2115
21189SOL    HW265009   4.274   5.252   6.443  0.6106  1.3093 -0.6399
21190SOL     OW65010   5.907   7.641   7.185 -0.1788 -0.1833  0.1501
21190SOL    HW165011   5.865   7.641   7.271 -2.1437  0.7174 -0.7467
21190SOL    HW265012   5.991   7.599   7.200 -1.0218 -1.2952  2.2376
21191SOL     OW65013   5.341   6.538   4.697 -0.2104 -0.5971  0.0030
21191SOL    HW165014   5.321   6.482   4.772  0.2671 -0.2130  0.4225
21191SOL    HW265015   5.318   6.485   4.620 -3.4296 -0.0067  0.4090
21192SOL     OW65016   7.914   4.855   6.786 -0.1199 -0.0671 -0.6455
21192SOL    HW165017   7.822   4.873   6.807 -0.1532  1.0697 -1.6326
21192SOL    HW265018   7.956   4.839   6.871 -1.3640 -1.3431 -0.2417
21193SOL     OW65019   7.333   2.087   8.133  0.6368  0.5705  0.3934
21193SOL    HW165020   7.330   2.043   8.218  1.8126  0.8399  0.5967
21193SOL    HW265021   7.385   2.166   8.150  0.6331  0.7725 -0.5141
21194SOL     OW65022   5.375   3.623   7.428 -0.0332  0.0545 -0.0213
21194SOL    HW165023   5.429   3.548   7.452  0.9153  0.8516  0.4182
21194SOL    HW265024   5.358   3.669   7.510 -0.4778  0.4101 -0.3043
21195SOL     OW65025   5.753   4.386   7.573  0.6661 -0.5738 -0.1863
21195SOL    HW165026   5.824   4.322   7.576  1.3564  0.1845 -0.1643
21195SOL    HW265027   5.796   4.471   7.565 -0.2255 -0.0667  0.1637
21196SOL     OW65028   6.606   3.463   5.644  0.2262 -0.4255  0.4351
21196SOL    HW165029   6.658   3.445   5.565 -0.1930 -0.4248  0.1521
21196SOL    HW265030   6.548   3.534   5.618  1.1314  0.6410  1.2189
21197SOL     OW65031   6.908   4.491   8.013  0.3620 -0.1790  0.3272
21197SOL    HW165032   6.825   4.454   7.984 -0.0584  2.3913 -2.2800
21197SOL    HW265033   6.926   4.448   8.096 -1.8779 -3.2401 -0.5917
21198SOL     OW65034   6.992   5.251   8.708  0.0253 -0.8739  0.0519
21198SOL    HW165035   6.997   5.272   8.615  1.6688 -1.3307 -0.0037
21198SOL    HW265036   6.947   5.167   8.711 -1.1277 -0.2799 -0.2171
21199SOL     OW65037   7.449   2.466   5.226  0.4568  0.0615  0.1131
21199SOL    HW165038   7.483   2.397   5.169  1.5351  1.2059 -0.6764
21199SOL    HW265039   7.432   2.540   5.167  1.2515  1.1601  1.2101
21200SOL     OW65040   5.847   7.380   5.377  0.1141 -0.6733 -0.3794
21200SOL    HW165041   5.880   7.323   5.308  0.1526 -1.8018  0.5488
21200SOL    HW265042   5.863   7.332   5.458  0.8025  0.9665  0.5097
21201SOL     OW65043   4.829   5.108   5.479 -0.3555 -0.1715 -0.3533
21201SOL    HW165044   4.735   5.100   5.493 -0.0470 -0.3379  2.1065
21201SOL    HW265045   4.842   5.087   5.386 -2.6849 -0.4363 -0.6709
21202SOL     OW65046   6.164   4.483   6.788  0.4679 -0.1280 -0.0100
21202SOL    HW165047   6.143   4.549   6.722  0.0408  0.0902  0.3366
21202SOL    HW265048   6.131   4.520   6.870  2.0477  0.1354  0.5400
21203SOL     OW65049   6.617   3.449   7.105 -0.1226  0.0848 -0.2836
21203SOL    HW165050   6.630   3.370   7.053 -1.8241  0.3980 -1.2473
21203SOL    HW265051   6.668   3.516   7.059 -0.6048  0.0772 -0.8394
21204SOL     OW65052   6.548   5.662   6.382 -0.4775 -0.3985  0.7363
21204SOL    HW165053   6.477   5.723   6.362  0.4923  0.3498 -0.5942
21204SOL    HW265054   6.551   5.660   6.478  0.7711  3.3197  0.9452
21205SOL     OW65055   0.215   5.032   6.001  0.0260  0.3260  0.1090
21205SOL    HW165056   0.269   4.953   6.006 -0.6471 -0.0509  2.3708
21205SOL    HW265057   0.129   5.000   5.973  0.3076  0.5900 -1.1054
21206SOL     OW65058   7.000   4.975   6.828  0.4091  0.1856  0.5209
21206SOL    HW165059   7.003   4.901   6.888  0.8528 -0.0729  0.1928
21206SOL    HW265060   6.967   4.939   6.746  0.5629  0.3612  0.3776
21207SOL     OW65061   5.517   3.715   7.053  0.0855  0.1885  0.3933
21207SOL    HW165062   5.502   3.641   6.993  0.5138  0.3515  0.0805
21207SOL    HW265063   5.449   3.778   7.030  0.4255  0.3741 -0.1300
21208SOL     OW65064   7.452   5.808   7.038 -0.0118 -1.0426 -0.1279
21208SOL    HW165065   7.544   5.816   7.062 -0.2478  2.0558  0.1530
21208SOL    HW265066   7.451   5.738   6.972  2.5265 -1.2121 -0.0964
21209SOL     OW65067   6.871   3.431   6.570  0.1510  0.0037  0.4228
21209SOL    HW165068   6.850   3.339   6.588  1.8013 -0.6078 -0.5754
21209SOL    HW265069   6.788   3.469   6.543 -0.5798 -1.1682  0.9313
21210SOL     OW65070   6.557   4.996   7.403  0.3436  0.9839 -0.5052
21210SOL    HW165071   6.561   4.921   7.462 -0.3971  0.7745 -0.6975
21210SOL    HW265072   6.636   4.989   7.350  1.0592  1.2258  0.5090
21211SOL     OW65073   5.800   6.550   8.750 -0.2025  0.0090  0.1102
21211SOL    HW165074   5.765   6.601   8.677  0.7761 -0.8104 -0.9688
21211SOL    HW265075   5.894   6.545   8.732 -0.1973 -1.6967  0.4740
21212SOL     OW65076   7.085   4.493   7.137 -0.1031  1.0466 -0.2038
21212SOL    HW165077   7.145   4.531   7.201  1.6702 -0.9142 -0.6146
21212SOL    HW265078   6.998   4.512   7.172  0.7828  1.3191  2.0063
21213SOL     OW65079   6.076   5.472   8.289  0.6381  0.1968  0.0228
21213SOL    HW165080   6.079   5.420   8.369  0.1915 -0.7229 -0.5359
21213SOL    HW265081   6.064   5.407   8.219  0.2387  1.0417 -0.7108
21214SOL     OW65082   5.978   5.951   6.195  0.2444 -0.4426 -0.2704
21214SOL    HW165083   5.927   5.985   6.269  1.3642  0.9541 -0.1053
21214SOL    HW265084   5.912   5.911   6.137 -0.6554 -1.5794  1.4492
21215SOL     OW65085   5.075   5.320   6.664 -0.1632 -0.1785 -0.1440
21215SOL    HW165086   5.000   5.270   6.694 -0.8935  0.6223 -0.5862
21215SOL    HW265087   5.149   5.286   6.715 -0.9446 -0.4804  0.8151
21216SOL     OW65088   7.547   1.318   6.864 -0.3275  0.4231  0.2143
21216SOL    HW165089   7.607   1.244   6.860 -0.4567  0.2223  1.4476
21216SOL    HW265090   7.561   1.365   6.782  0.8905 -0.0944  0.1021
21217SOL     OW65091   5.608   3.714   6.259  0.5421 -0.3898  0.4273
21217SOL    HW165092   5.600   3.809   6.252  1.8135 -0.3603 -1.0634
21217SOL    HW265093   5.628   3.698   6.352 -0.7699  0.6815  0.9177
21218SOL     OW65094   5.640   5.196   6.538 -0.0303 -0.6434  0.0965
21218SOL    HW165095   5.548   5.223   6.544 -0.2144 -1.4534  1.6014
21218SOL    HW265096   5.688   5.277   6.525 -0.9789 -0.2482 -1.1288
21219SOL     OW65097   5.436   4.100   7.889  0.1326  0.6440 -0.5235
21219SOL    HW165098   5.510   4.039   7.895  0.0108  0.5159 -0.3071
21219SOL    HW265099   5.359   4.046   7.909  0.0752  0.9849  0.1982
21220SOL     OW65100   7.013   4.403   6.901  0.1548 -0.2790  0.3203
21220SOL    HW165101   7.025   4.436   6.990 -0.0982 -1.1032  0.6667
21220SOL    HW265102   6.990   4.311   6.912 -1.5526  0.0039 -0.5115
21221SOL     OW65103   5.812   4.826   6.522  0.4039 -0.0031  0.2686
21221SOL    HW165104   5.720   4.851   6.511  0.1791 -1.8149 -4.0422
21221SOL    HW265105   5.809   4.742   6.567  0.0030  0.2325  0.6859
21222SOL     OW65106   6.374   5.632   9.471  0.3759 -0.0071  0.1934
21222SOL    HW165107   6.461   5.654   9.437 -0.0998 -1.0392 -1.8757
21222SOL    HW265108   6.361   5.540   9.445 -1.4557  0.2357  0.1250
21223SOL     OW65109   4.682   4.741   7.693 -0.1175 -0.2034 -0.1056
21223SOL    HW165110   4.641   4.660   7.661 -1.4916  0.4307  0.0020
21223SOL    HW265111   4.626   4.769   7.765  0.2767  0.9320 -0.2329
21224SOL     OW65112   5.935   6.766   5.469 -0.5582  0.3783 -0.4061
21224SOL    HW165113   5.890   6.699   5.417 -0.4757 -0.3542  0.4489
21224SOL    HW265114   5.865   6.811   5.516 -0.4539 -0.3960  0.5015
21225SOL     OW65115   7.368   4.646   6.583 -0.1407 -0.2991  0.3286
21225SOL    HW165116   7.460   4.668   6.596 -0.4687  1.2818  0.1869
21225SOL    HW265117   7.339   4.611   6.667  0.0472  1.3402  1.1289
21226SOL     OW65118   6.425   6.507   5.891 -0.2704  0.1779 -0.1490
21226SOL    HW165119   6.399   6.589   5.850 -2.2969 -0.5455 -0.4212
21226SOL    HW265120   6.479   6.464   5.825  0.8179  1.2530  0.0007
21227SOL     OW65121   7.397   3.476   8.580  0.0144  0.5945 -0.0645
21227SOL    HW165122   7.454   3.426   8.639  1.1123  1.0990 -0.6641
21227SOL    HW265123   7.423   3.448   8.492 -1.3233  0.1562 -0.3430
21228SOL     OW65124   5.528   5.815   6.343 -0.4241  0.2172  0.1478
21228SOL    HW165125   5.593   5.878   6.310 -1.4333  0.3165 -1.7835
21228SOL    HW265126   5.568   5.729   6.326 -0.2482  0.3009  0.1370
21229SOL     OW65127   5.841   4.182   7.939  0.0191  0.5929  0.4941
21229SOL    HW165128   5.795   4.113   7.892 -0.6387  1.1889  0.2590
21229SOL    HW265129   5.856   4.146   8.027  0.1763 -0.0552  0.2048
21230SOL     OW65130   6.116   4.706   6.606 -0.3488 -0.0301 -0.4600
21230SOL    HW165131   6.082   4.650   6.536  0.3893 -1.3304  0.1850
21230SOL    HW265132   6.086   4.794   6.583  1.1733 -0.1418 -3.2323
21231SOL     OW65133   5.241   5.022   5.702 -0.7118 -0.3296  0.3171
21231SOL    HW165134   5.158   5.070   5.705 -1.0319 -0.8222 -0.3972
21231SOL    HW265135   5.217   4.932   5.724 -0.2516 -0.3379  0.8013
21232SOL     OW65136   7.038   6.408   5.567 -0.3038 -0.3905  0.3181
21232SOL    HW165137   7.014   6.476   5.630 -1.6752 -1.4454  0.9937
21232SOL    HW265138   6.956   6.386   5.523  0.1595 -1.4315 -0.0589
21233SOL     OW65139   5.195   3.678   5.504  1.1339 -0.0381  0.0052
21233SOL    HW165140   5.226   3.605   5.449  1.8482 -0.0557  0.4202
21233SOL    HW265141   5.141   3.731   5.445  0.6026 -0.8998 -0.3050
21234SOL     OW65142   7.239   4.614   7.729  0.2240 -0.2553 -0.0121
21234SOL    HW165143   7.305   4.633   7.662  1.9334  0.7540  1.8670
21234SOL    HW265144   7.173   4.562   7.682  1.3901  0.2623 -2.4244
21235SOL     OW65145   6.262   4.231   8.207 -0.2943 -0.4790  0.0463
21235SOL    HW165146   6.355   4.222   8.224 -0.1215  1.3484  0.2667
21235SOL    HW265147   6.220   4.168   8.266  0.8324 -2.8983 -1.5701
21236SOL     OW65148   6.146   5.928   5.492 -0.2741 -0.3913  0.4471
21236SOL    HW165149   6.108   5.842   5.511 -1.9845  0.3759  0.6754
21236SOL    HW265150   6.151   5.972   5.577 -0.3112  0.0661  0.2186
21237SOL     OW65151   5.407   6.400   6.927 -0.3153  0.3325  0.0765
21237SOL    HW165152   5.448   6.350   6.857  0.8215  0.9730  0.2469
21237SOL    HW265153   5.326   6.434   6.889  0.1800  0.4922 -0.8584
21238SOL     OW65154   6.555   6.498   9.118 -0.0759  0.2242 -0.2185
21238SOL    HW165155   6.619   6.540   9.061  0.7404  0.3204  0.7387
21238SOL    HW265156   6.607   6.452   9.184 -0.9656  0.6348  0.8223
21239SOL     OW65157   7.978   4.903   5.913 -0.3313 -0.2825  0.0729
21239SOL    HW165158   7.882   4.902   5.908 -0.3736 -1.8093  0.6716
21239SOL    HW265159   8.003   4.811   5.908  1.1352  0.1228 -0.3958
21240SOL     OW65160   6.067   3.632   6.521 -0.3649  0.0905  0.3934
21240SOL    HW165161   6.019   3.714   6.509  2.3567  1.5776 -1.3558
21240SOL    HW265162   6.115   3.645   6.603 -3.0331 -1.5799  2.3923
21241SOL     OW65163   6.178   4.100   8.442 -0.0233  0.0296 -0.0411
21241SOL    HW165164   6.165   4.125   8.533 -0.0450  0.8008 -0.2431
21241SOL    HW265165   6.090   4.091   8.406 -0.0736  2.0174 -0.5633
21242SOL     OW65166   7.421   2.506   6.712  0.2456  0.0369 -0.1201
21242SOL    HW165167   7.450   2.448   6.642  0.6470  2.3823 -2.0110
21242SOL    HW265168   7.337   2.469   6.741  0.8372 -1.8663 -0.7115
21243SOL     OW65169   5.890   5.088   5.376 -0.2780  0.0069 -0.0233
21243SOL    HW165170   5.969   5.085   5.431 -0.0214  1.5246 -0.2838
21243SOL    HW265171   5.923   5.079   5.287 -0.3774  0.8031 -0.1431
21244SOL     OW65172   6.682   6.993   6.670 -0.4332  0.2752 -0.1811
21244SOL    HW165173   6.622   7.045   6.617  0.9303  1.7262 -0.3700
21244SOL    HW265174   6.710   7.052   6.739  0.7861 -0.3634 -0.1056
21245SOL     OW65175   6.016   7.080   6.092  0.5050  0.5685  0.2048
21245SOL    HW165176   5.975   6.994   6.101  0.6166  0.2112 -1.9941
21245SOL    HW265177   6.068   7.091   6.171  0.0340 -1.1366  0.7942
21246SOL     OW65178   6.946   5.505   5.421  0.4920  0.2777  0.0299
21246SOL    HW165179   6.938   5.499   5.516  0.9343 -0.1815  0.0406
21246SOL    HW265180   7.015   5.570   5.406  0.3570  0.4200  0.0169
21247SOL     OW65181   6.392   4.044   6.472 -0.2241 -0.2876 -0.0579
21247SOL    HW165182   6.326   4.056   6.403 -0.3009  1.2701  0.2410
21247SOL    HW265183   6.367   4.108   6.540  1.0728 -0.3005  0.4568
21248SOL     OW65184   7.597   5.798   6.306 -0.4633  0.1289  0.0146
21248SOL    HW165185   7.507   5.769   6.318  0.4613 -3.4532 -0.6691
21248SOL    HW265186   7.627   5.820   6.395 -1.3608 -0.8394  0.5770
21249SOL     OW65187   5.658   4.527   5.674  0.3468  0.1174  0.8189
21249SOL    HW165188   5.658   4.621   5.694 -0.2310  0.2397  0.2936
21249SOL    HW265189   5.750   4.504   5.665  0.5243  0.4692  1.6978
21250SOL     OW65190   7.241   4.864   5.840 -0.0860 -0.1790 -0.1607
21250SOL    HW165191   7.219   4.931   5.905  0.5473 -1.9810  2.0255
21250SOL    HW265192   7.156   4.837   5.804 -0.7842 -1.0241  1.9514
21251SOL     OW65193   5.871   5.432   9.411 -0.2931  0.1123  0.1683
21251SOL    HW165194   5.918   5.503   9.368  1.1977 -1.1493 -0.3741
21251SOL    HW265195   5.886   5.447   9.505 -2.8639  2.3911  0.3444
21252SOL     OW65196   7.253   3.258   6.737 -0.3722  0.1717 -0.2194
21252SOL    HW165197   7.271   3.304   6.656  1.5607  0.5030  0.3525
21252SOL    HW265198   7.159   3.242   6.735 -0.4870  0.8534 -2.1436
21253SOL     OW65199   6.610   4.547   5.882 -0.2274  0.3277 -0.7326
21253SOL    HW165200   6.613   4.524   5.975  1.4338  2.2345 -0.2495
21253SOL    HW265201   6.579   4.638   5.881  0.8477  0.7004 -1.9507
21254SOL     OW65202   7.548   4.434   5.701 -0.4605  0.1612 -0.2053
21254SOL    HW165203   7.498   4.409   5.623  0.7410 -0.9467 -0.6525
21254SOL    HW265204   7.500   4.394   5.773  0.7150 -2.5413 -0.7970
21255SOL     OW65205   4.817   5.975   5.620 -0.0605  0.1733  0.6040
21255SOL    HW165206   4.912   5.980   5.630  0.2120  1.6765 -1.8696
21255SOL    HW265207   4.803   5.902   5.560 -0.4225  0.2315  0.6170
21256SOL     OW65208   5.882   3.836   6.446 -0.0865 -0.1614  0.1100
21256SOL    HW165209   5.795   3.809   6.475  0.4129  1.1918  3.2523
21256SOL    HW265210   5.870   3.926   6.414  0.1466  0.0559  0.6230
21257SOL     OW65211   5.801   4.281   6.873  0.0274 -0.0612 -0.1393
21257SOL    HW165212   5.801   4.225   6.795  2.0235  0.2970 -0.4676
21257SOL    HW265213   5.713   4.316   6.878  0.2889  1.3828 -3.3439
21258SOL     OW65214   5.541   4.378   6.878  0.5381  0.6852  0.3268
21258SOL    HW165215   5.496   4.347   6.800  0.4258 -0.2697  0.7638
21258SOL    HW265216   5.475   4.373   6.947  1.2636 -0.6128  0.9481
21259SOL     OW65217   6.981   6.039   5.835 -0.4985  0.4857 -0.2441
21259SOL    HW165218   6.964   5.955   5.792 -0.0456 -0.2202  0.9403
21259SOL    HW265219   6.950   6.028   5.925  0.4550  1.2636  0.2038
21260SOL     OW65220   5.897   5.662   6.355  0.0057 -0.1831  0.1012
21260SOL    HW165221   5.913   5.719   6.430 -0.2989 -1.2987  1.0215
21260SOL    HW265222   5.983   5.652   6.314  0.4203 -0.6134  1.0545
21261SOL     OW65223   6.638   3.348   6.822  0.3059  0.8389 -0.0007
21261SOL    HW165224   6.560   3.309   6.862 -0.0758  0.1051 -1.3860
21261SOL    HW265225   6.671   3.280   6.763  1.4107  1.5247 -0.2018
21262SOL     OW65226   6.760   4.646   6.486  0.1449  0.3863 -0.3517
21262SOL    HW165227   6.793   4.732   6.511 -1.7640  0.7313  1.1674
21262SOL    HW265228   6.810   4.585   6.539 -0.2378  0.7528  0.4412
21263SOL     OW65229   5.493   5.749   5.113 -0.8719 -0.4186 -0.1327
21263SOL    HW165230   5.416   5.704   5.147 -1.1811 -0.1882 -0.5205
21263SOL    HW265231   5.563   5.725   5.173 -1.0879 -1.2209 -0.1959
21264SOL     OW65232   6.340   6.959   6.459 -0.5066  0.4067  0.1854
21264SOL    HW165233   6.392   6.881   6.438 -0.2628  0.4618  0.5654
21264SOL    HW265234   6.285   6.932   6.533 -1.4306  0.1828 -0.5633
21265SOL     OW65235   4.874   4.891   7.526 -1.1078  0.0543 -0.5436
21265SOL    HW165236   4.835   4.834   7.592 -1.1540  0.0745 -0.5534
21265SOL    HW265237   4.846   4.855   7.442  0.3850 -1.0274 -0.6256
21266SOL     OW65238   6.041   3.419   7.723  0.2018  0.0417  0.0428
21266SOL    HW165239   5.998   3.490   7.771  1.9466 -0.1313  1.9856
21266SOL    HW265240   6.052   3.349   7.788  3.4053  0.0946 -0.2887
21267SOL     OW65241   5.675   5.915   8.638 -0.3233  0.4470 -0.1393
21267SOL    HW165242   5.630   5.981   8.690 -0.9035  0.8702 -1.1617
21267SOL    HW265243   5.766   5.945   8.636 -0.6254  1.3696 -0.7999
21268SOL     OW65244   6.636   5.269   8.862 -0.5205  0.2262 -0.3954
21268SOL    HW165245   6.710   5.251   8.920  0.0376 -1.5633 -1.5869
21268SOL    HW265246   6.562   5.223   8.902 -0.7186  0.9924  0.1406
21269SOL     OW65247   5.449   4.413   8.008 -0.0136  0.0784  0.3077
21269SOL    HW165248   5.526   4.440   7.957 -1.0628  0.6388 -1.0424
21269SOL    HW265249   5.383   4.393   7.942 -0.3932 -2.4851  1.3797
21270SOL     OW65250   7.874   3.007   8.712  0.2263  0.0193 -0.3842
21270SOL    HW165251   7.842   2.939   8.770 -1.9383  1.5802  0.3497
21270SOL    HW265252   7.881   3.085   8.767  3.3068  0.3450 -1.0308
21271SOL     OW65253   3.917   3.237  10.786 -0.4837 -0.4102  0.1461
21271SOL    HW165254   3.910   3.264  10.694 -1.2855 -1.7484 -0.2177
21271SOL    HW265255   4.010   3.245  10.806 -0.5610  1.7729 -0.1660
21272SOL     OW65256   5.234   4.445   9.944 -0.4376 -0.0443  0.2446
21272SOL    HW165257   5.322   4.442   9.982 -0.1208  3.1216 -0.0024
21272SOL    HW265258   5.178   4.473  10.017 -0.9083 -0.1451 -0.0777
21273SOL     OW65259   7.593   3.893  10.056  0.6974 -0.1529  0.2147
21273SOL    HW165260   7.687   3.880  10.050  0.6618 -0.1029 -0.4812
21273SOL    HW265261   7.577   3.908  10.149  1.1930 -1.6261  0.5660
21274SOL     OW65262   5.134   6.229   8.383 -0.3118  0.2780  0.1767
21274SOL    HW165263   5.076   6.169   8.335 -1.7181  3.0353 -1.8119
21274SOL    HW265264   5.083   6.257   8.459  0.2707 -0.8022  0.9967
21275SOL     OW65265   4.946   3.027   9.863  0.4971  0.5144  0.1658
21275SOL    HW165266   4.908   3.112   9.884 -1.1390  0.3541 -1.8548
21275SOL    HW265267   5.040   3.044   9.856  0.3090  1.9483  0.6859
21276SOL     OW65268   5.408   5.151   8.786 -0.3731  0.2208 -0.0008
21276SOL    HW165269   5.401   5.238   8.826  1.2002 -0.1304  1.1641
21276SOL    HW265270   5.431   5.168   8.695 -0.8609  1.0349  0.0223
21277SOL     OW65271   6.298   5.544   8.165  0.1528 -0.2712 -0.2648
21277SOL    HW165272   6.213   5.509   8.195 -1.3300  2.0108 -1.5843
21277SOL    HW265273   6.306   5.513   8.075  0.5272 -0.0911 -0.2935
21278SOL     OW65274   5.049   5.405  11.257 -0.2774 -0.5025 -0.1679
21278SOL    HW165275   4.969   5.361  11.285  0.9443 -2.2380  0.7155
21278SOL    HW265276   5.105   5.406  11.334  0.9126 -0.1383 -1.0032
21279SOL     OW65277   5.678   3.921  10.231  0.1155 -0.9233  0.3279
21279SOL    HW165278   5.611   3.989  10.243  1.5918  0.6165  0.3190
21279SOL    HW265279   5.672   3.899  10.138 -1.0724 -1.6016  0.5424
21280SOL     OW65280   4.459   7.043   9.533 -0.0763  0.0785 -0.2115
21280SOL    HW165281   4.462   7.139   9.536  1.1503  0.0539  0.1873
21280SOL    HW265282   4.541   7.016   9.575  0.7730 -1.0942 -2.4511
21281SOL     OW65283   6.185   5.495   9.114 -0.5671 -0.6051  0.4380
21281SOL    HW165284   6.243   5.423   9.140  1.0700  0.7787  0.7643
21281SOL    HW265285   6.236   5.574   9.129 -1.6685  0.5749 -1.5988
21282SOL     OW65286   4.760   4.947   7.062  0.1524 -0.4727 -0.5817
21282SOL    HW165287   4.829   4.888   7.092 -0.3849 -1.9436 -2.0676
21282SOL    HW265288   4.679   4.899   7.078 -0.5295  1.0069  0.6353
21283SOL     OW65289   6.117   4.707   7.987  0.3229  0.4926 -0.3996
21283SOL    HW165290   6.107   4.802   7.996 -0.6050  0.1983  4.1950
21283SOL    HW265291   6.205   4.688   8.019 -0.1797 -0.2848  0.5991
21284SOL     OW65292   4.998   4.220  10.852 -0.1485  0.1260 -0.0875
21284SOL    HW165293   4.964   4.297  10.805 -0.5592 -0.6858 -1.1514
21284SOL    HW265294   4.964   4.145  10.803  1.0363 -0.7335  0.3687
21285SOL     OW65295   5.481   4.681   4.726 -0.0535  0.5321  0.4062
21285SOL    HW165296   5.560   4.631   4.708  0.0764  0.9368 -0.1563
21285SOL    HW265297   5.417   4.615   4.752  0.1539  0.0846 -0.2072
21286SOL     OW65298   7.307   4.018   8.798  0.4798  0.2377  0.8920
21286SOL    HW165299   7.265   3.932   8.798 -0.8880  0.6574  5.3129
21286SOL    HW265300   7.290   4.053   8.711 -1.6039 -2.7330 -0.0596
21287SOL     OW65301   4.976   1.801  10.355 -0.5678 -0.1199  0.5796
21287SOL    HW165302   4.890   1.765  10.334  0.4252 -1.0686 -2.3690
21287SOL    HW265303   5.012   1.829  10.270  1.9821  0.3431  1.7140
21288SOL     OW65304   7.358   5.176   7.961  0.1629 -0.1229  0.1847
21288SOL    HW165305   7.377   5.102   7.903 -1.8685 -1.5453  1.2346
21288SOL    HW265306   7.305   5.235   7.908 -2.1701 -1.6847  0.6510
21289SOL     OW65307   7.233   4.185   9.463  0.4278  0.3063  0.1239
21289SOL    HW165308   7.228   4.234   9.545 -2.6064 -1.5063  1.1726
21289SOL    HW265309   7.269   4.100   9.488  0.6457  0.1502 -0.6833
21290SOL     OW65310   6.577   4.465   8.435  0.0462  0.5813  0.0886
21290SOL    HW165311   6.634   4.540   8.420  0.1079  0.4131 -0.5637
21290SOL    HW265312   6.602   4.431   8.521 -0.0615  1.3734  0.4399
21291SOL     OW65313   0.547   4.055   9.625 -0.7123  0.2287 -0.0171
21291SOL    HW165314   0.560   4.101   9.708  2.7357  3.0080 -1.8730
21291SOL    HW265315   0.630   4.011   9.608 -2.0739 -2.1410 -1.0852
21292SOL     OW65316   5.199   5.897   8.707 -0.2997  0.6618  0.0483
21292SOL    HW165317   5.227   5.981   8.670  1.3029  0.4651  0.7094
21292SOL    HW265318   5.247   5.831   8.657 -0.4493  0.2231  0.4680
21293SOL     OW65319   7.469   5.437   8.431 -0.3934  0.3934  0.3575
21293SOL    HW165320   7.470   5.478   8.518  0.3765  1.3376 -0.0704
21293SOL    HW265321   7.377   5.436   8.406 -0.4863  1.4834  0.5850
21294SOL     OW65322   7.865   5.391   7.270  0.8100 -0.0208 -1.0345
21294SOL    HW165323   7.817   5.383   7.187  0.0815 -0.0674 -0.6203
21294SOL    HW265324   7.806   5.442   7.326  0.6213 -1.2822 -0.0508
21295SOL     OW65325   7.035   2.577   6.083  0.2066 -0.5267  0.4111
21295SOL    HW165326   7.031   2.576   6.178 -0.2914 -0.1871  0.3974
21295SOL    HW265327   6.953   2.536   6.055  0.2182 -0.3593  0.1290
21296SOL     OW65328   5.821   5.264   9.907 -0.3563  0.0999 -0.2646
21296SOL    HW165329   5.875   5.342   9.896 -0.2501  0.1266  0.3759
21296SOL    HW265330   5.762   5.264   9.832  0.7485 -0.1033 -1.1599
21297SOL     OW65331   7.652   3.478   6.080  0.0547  0.0142 -0.5362
21297SOL    HW165332   7.705   3.408   6.117  0.1574 -0.9153 -2.3498
21297SOL    HW265333   7.672   3.554   6.134  3.2429 -0.2788 -1.1349
21298SOL     OW65334   6.448   6.352   8.384 -0.3162  0.4709  0.2622
21298SOL    HW165335   6.374   6.407   8.410 -1.0020  0.1686 -0.9743
21298SOL    HW265336   6.510   6.411   8.343  0.9014  1.0027  2.6851
21299SOL     OW65337   5.377   3.296   6.671 -0.6649 -0.1407  0.4582
21299SOL    HW165338   5.458   3.326   6.712 -0.4276 -2.3376  1.7989
21299SOL    HW265339   5.343   3.372   6.623  2.4778  0.6874 -0.6691
21300SOL     OW65340   6.069   4.779   8.983  0.3011  0.3078  0.4546
21300SOL    HW165341   5.992   4.805   9.034 -0.9714  0.9649 -1.6765
21300SOL    HW265342   6.130   4.743   9.048 -1.9328 -0.6028  2.1756
21301SOL     OW65343   7.364   5.621   6.843 -0.6818  0.3295  0.4399
21301SOL    HW165344   7.423   5.589   6.776 -0.8547  0.5546  0.1782
21301SOL    HW265345   7.308   5.546   6.865  1.0259 -0.5279  2.1894
21302SOL     OW65346   5.962   4.201  10.073 -0.0416 -0.5096  0.2706
21302SOL    HW165347   5.978   4.149   9.995  0.1923  0.2545 -0.1989
21302SOL    HW265348   5.974   4.140  10.146  1.1828 -0.8909 -0.2231
21303SOL     OW65349   7.040   3.455   9.127  0.8117 -0.0838 -0.3856
21303SOL    HW165350   7.099   3.515   9.173  0.4799 -0.1636  0.1427
21303SOL    HW265351   6.953   3.493   9.138  0.4891 -1.0547  0.6210
21304SOL     OW65352   0.884   4.899   8.332 -0.2100  0.7855 -0.6097
21304SOL    HW165353   0.797   4.874   8.303  0.6451 -0.3975 -2.2516
21304SOL    HW265354   0.940   4.886   8.256  1.0376  3.7986 -0.3432
21305SOL     OW65355   6.647   3.792   9.151  0.3249 -0.2717  0.6985
21305SOL    HW165356   6.575   3.741   9.115  0.0151  0.1103  0.7677
21305SOL    HW265357   6.701   3.815   9.075  0.3679 -0.5476  0.6462
21306SOL     OW65358   6.001   4.138  10.947 -0.3754  0.2422 -0.2615
21306SOL    HW165359   6.057   4.214  10.933 -1.5682  1.2278  0.1123
21306SOL    HW265360   5.945   4.134  10.869  0.3312 -0.8666 -0.7415
21307SOL     OW65361   6.935   5.389   9.996  0.0516 -0.2029  0.0723
21307SOL    HW165362   6.870   5.380  10.065  0.8611 -0.6744  0.7858
21307SOL    HW265363   7.013   5.343  10.029  1.5594  2.3034  0.2900
21308SOL     OW65364   7.526   4.681   9.502 -0.3453  0.3047  0.1201
21308SOL    HW165365   7.530   4.653   9.593 -1.3440 -2.4932 -0.5970
21308SOL    HW265366   7.617   4.679   9.472 -0.0133  1.2044  0.9924
21309SOL     OW65367   5.064   4.888   8.372 -0.6186 -0.0176  1.1465
21309SOL    HW165368   5.021   4.938   8.443 -0.4288 -0.5908  1.6708
21309SOL    HW265369   4.993   4.838   8.333 -0.6070 -0.2054  1.3647
21310SOL     OW65370   6.057   5.532  10.142  0.1609  0.6831 -0.2621
21310SOL    HW165371   6.152   5.537  10.136  0.1776  0.2996 -0.3724
21310SOL    HW265372   6.038   5.438  10.138 -0.0430  0.5315  2.5516
21311SOL     OW65373   6.627   5.152   7.817  0.8123  0.0791 -0.0609
21311SOL    HW165374   6.662   5.200   7.742 -0.7286  0.8439 -0.3460
21311SOL    HW265375   6.653   5.203   7.893 -0.3125  1.0985 -0.3245
21312SOL     OW65376   6.687   6.651   8.420  0.8093 -0.4831 -0.6892
21312SOL    HW165377   6.649   6.611   8.342  3.0023  0.7158 -2.4828
21312SOL    HW265378   6.779   6.625   8.418  0.7351 -1.2605  2.1276
21313SOL     OW65379   5.961   4.521   7.814  0.4034  0.4009  0.2195
21313SOL    HW165380   5.991   4.556   7.898  0.4583  2.2695 -0.5214
21313SOL    HW265381   6.011   4.571   7.749 -1.4102  0.7749 -0.9499
21314SOL     OW65382   3.491   2.976   8.708  0.2516  0.0636  0.0992
21314SOL    HW165383   3.555   3.018   8.766 -1.0799 -1.6835  3.0885
21314SOL    HW265384   3.537   2.900   8.673  0.9257  0.8794 -0.8436
21315SOL     OW65385   5.104   4.709   8.665  0.9232 -0.2264 -0.1606
21315SOL    HW165386   5.028   4.710   8.608 -0.7080  0.1755  1.9000
21315SOL    HW265387   5.178   4.695   8.606 -0.7690 -1.2319 -2.1804
21316SOL     OW65388   5.081   4.808   7.745 -0.2475  0.2033  0.7964
21316SOL    HW165389   5.120   4.778   7.827 -1.1317  1.3699  1.6860
21316SOL    HW265390   5.024   4.880   7.771  0.3142  1.3701 -0.9830
21317SOL     OW65391   6.725   2.667   9.405  0.3518 -0.2716 -0.4643
21317SOL    HW165392   6.668   2.605   9.451 -0.7469  0.1637 -1.2015
21317SOL    HW265393   6.810   2.623   9.402  0.6659 -0.1105  2.4253
21318SOL     OW65394   5.225   4.404   7.530 -0.7995 -0.9000 -0.8873
21318SOL    HW165395   5.206   4.331   7.470 -1.1555 -1.0741 -0.5637
21318SOL    HW265396   5.306   4.377   7.574  0.1406 -0.2376 -2.1324
21319SOL     OW65397   5.851   5.455   8.020 -0.1948 -0.4809  0.1714
21319SOL    HW165398   5.929   5.410   8.054 -0.8866 -0.6325  1.6220
21319SOL    HW265399   5.779   5.420   8.071 -0.7489  2.5263  1.6687
21320SOL     OW65400   7.092   5.370   8.107 -0.0581 -0.5105 -0.2907
21320SOL    HW165401   7.116   5.357   8.016 -4.0337 -2.3188 -1.3052
21320SOL    HW265402   7.047   5.454   8.109  0.4128 -0.2585  0.1483
21321SOL     OW65403   5.006   6.369   9.008 -0.2923 -0.3495 -0.1532
21321SOL    HW165404   4.988   6.353   9.101 -0.6457  0.7630 -0.0113
21321SOL    HW265405   5.078   6.309   8.987 -2.0810 -2.6984  0.0611
21322SOL     OW65406   6.091   5.275   6.503 -0.2825 -0.5210 -0.1655
21322SOL    HW165407   6.139   5.249   6.424 -1.7980  0.7356 -1.5559
21322SOL    HW265408   5.999   5.262   6.481 -0.7228 -1.3701  1.8924
21323SOL     OW65409   7.223   4.111   8.554 -0.1860  0.1192  0.0044
21323SOL    HW165410   7.258   4.200   8.541  0.5216  0.1425  1.7126
21323SOL    HW265411   7.282   4.054   8.505  1.7551  0.2706  1.9505
21324SOL     OW65412   6.470   6.000   8.274 -0.2600 -0.0247  0.2542
21324SOL    HW165413   6.511   5.993   8.361  0.4713  1.0356  0.0085
21324SOL    HW265414   6.518   6.070   8.230 -1.4416  0.3061 -0.5625
21325SOL     OW65415   0.140   3.185   8.463  0.1018  0.2309 -0.4706
21325SOL    HW165416   0.048   3.175   8.490 -0.0798 -0.8301 -1.3945
21325SOL    HW265417   0.152   3.279   8.451 -0.5473  0.4894  0.6915
21326SOL     OW65418   6.081   3.760   8.789  0.0504 -0.3059 -0.2684
21326SOL    HW165419   6.014   3.787   8.852 -1.2973 -2.8186 -0.5199
21326SOL    HW265420   6.037   3.762   8.704  0.6557 -0.7768 -0.6036
21327SOL     OW65421   7.765   3.712   7.665  0.3456 -0.2121  0.3880
21327SOL    HW165422   7.724   3.744   7.746  0.5099 -0.6126  0.6295
21327SOL    HW265423   7.852   3.753   7.664  0.4478 -0.4256  0.5527
21328SOL     OW65424   0.023   5.076   6.648  0.1426  0.0014 -0.1114
21328SOL    HW165425  -0.033   5.088   6.572  1.6822  0.6871 -1.1936
21328SOL    HW265426  -0.008   4.995   6.688 -0.5560 -0.5122 -1.6104
21329SOL     OW65427   0.130   3.166   9.439  0.1916  0.2978 -1.0209
21329SOL    HW165428   0.084   3.230   9.385  1.6374  1.9104 -0.4517
21329SOL    HW265429   0.061   3.128   9.495 -0.4360  3.3720  0.5457
21330SOL     OW65430   6.652   5.838   9.110  0.8076  0.0491  0.1166
21330SOL    HW165431   6.596   5.822   9.035 -1.1533 -0.6231  1.6369
21330SOL    HW265432   6.678   5.929   9.102  0.3626  0.0789 -1.1846
21331SOL     OW65433   7.167   3.075   9.081 -0.5709 -0.1065 -0.1606
21331SOL    HW165434   7.248   3.072   9.132 -0.0505  1.7261 -0.8065
21331SOL    HW265435   7.106   3.123   9.136  0.3119  2.8394 -1.5390
21332SOL     OW65436   5.535   4.730   7.918  0.1099 -0.1342 -0.7469
21332SOL    HW165437   5.616   4.750   7.964 -0.3880 -2.2222  1.2423
21332SOL    HW265438   5.557   4.658   7.859 -0.3399 -1.1058  0.2199
21333SOL     OW65439   6.245   5.014   9.591  0.0948 -0.3195 -0.0686
21333SOL    HW165440   6.219   5.088   9.647 -1.8871 -1.1102  0.1488
21333SOL    HW265441   6.334   5.035   9.563  0.2566  1.2640  1.4534
21334SOL     OW65442   7.213   5.135   9.348  0.1008  0.1497  0.8178
21334SOL    HW165443   7.186   5.045   9.329  1.7337  0.1036 -1.7526
21334SOL    HW265444   7.152   5.189   9.298 -0.2878  0.4506  1.6015
21335SOL     OW65445   7.268   3.772   8.198 -0.2352 -0.3524 -0.1345
21335SOL    HW165446   7.202   3.703   8.194  1.8001 -2.5352  1.1496
21335SOL    HW265447   7.314   3.767   8.114 -1.4070  0.9511 -0.8989
21336SOL     OW65448   6.263   2.526   8.444  0.0183  0.5323 -0.5178
21336SOL    HW165449   6.321   2.461   8.405 -0.4284  0.6134 -1.3208
21336SOL    HW265450   6.257   2.500   8.536  1.5575  0.6942 -0.3453
21337SOL     OW65451   7.352   3.983   6.810  0.1485 -0.3063 -0.5721
21337SOL    HW165452   7.303   4.045   6.756  0.1904  0.0673 -0.1914
21337SOL    HW265453   7.362   4.028   6.894  0.8532 -0.5181 -0.5386
21338SOL     OW65454   5.905   2.824   9.407  0.2548 -0.1387  0.2442
21338SOL    HW165455   5.914   2.841   9.501  0.1110 -2.0781  0.6329
21338SOL    HW265456   5.872   2.907   9.372 -0.4262  0.3951  2.0052
21339SOL     OW65457   0.011   4.385   6.934  0.1957 -0.0273 -0.0030
21339SOL    HW165458  -0.014   4.380   6.841 -2.5336  3.4298  0.3527
21339SOL    HW265459  -0.055   4.332   6.979 -1.9521  2.6348  0.2525
21340SOL     OW65460   6.302   6.384   9.109 -0.6696 -0.1625  0.4514
21340SOL    HW165461   6.353   6.462   9.092  1.8432 -1.7299  0.3239
21340SOL    HW265462   6.237   6.411   9.175  0.0791  2.0049  0.3644
21341SOL     OW65463   6.080   3.844   8.171  0.4662 -0.6444  0.3730
21341SOL    HW165464   6.115   3.757   8.151  3.5257  0.4378  0.3996
21341SOL    HW265465   6.103   3.858   8.263  0.4581  0.3627  0.2368
21342SOL     OW65466   6.580   3.793   8.266 -0.9753  0.1928  0.6662
21342SOL    HW165467   6.542   3.730   8.205  1.0975  0.7116 -1.3019
21342SOL    HW265468   6.505   3.842   8.300 -2.5471 -2.6249  1.5230
21343SOL     OW65469   6.345   4.464   8.019  0.7793 -0.1090  0.6204
21343SOL    HW165470   6.425   4.415   7.998  1.0505  0.2745  0.7411
21343SOL    HW265471   6.276   4.398   8.019  0.7924 -0.1789 -1.2398
21344SOL     OW65472   4.939   1.173  10.092 -0.6105 -0.4205  0.1652
21344SOL    HW165473   4.955   1.181   9.998 -0.1977 -3.6611 -0.1615
21344SOL    HW265474   4.845   1.155  10.100 -0.2881 -2.4672  0.0555
21345SOL     OW65475   6.723   4.689   7.853 -0.1735  0.4426 -0.1539
21345SOL    HW165476   6.814   4.703   7.877 -0.3118  0.6699  0.2404
21345SOL    HW265477   6.679   4.771   7.873 -0.9764 -0.4569  2.1172
21346SOL     OW65478   5.144   2.904  10.403  0.1988 -0.1445 -0.4064
21346SOL    HW165479   5.132   2.955  10.323  2.3007 -0.3087 -0.8880
21346SOL    HW265480   5.131   2.813  10.376 -0.4686 -0.1091 -0.2294
21347SOL     OW65481   5.724   4.308  10.210 -0.5994  0.2306 -0.0501
21347SOL    HW165482   5.732   4.402  10.226  1.0574 -0.2913  2.9450
21347SOL    HW265483   5.797   4.287  10.153 -1.5409  0.8551 -1.5354
21348SOL     OW65484   6.837   4.070   6.619 -0.1942  0.5510  0.1411
21348SOL    HW165485   6.755   4.024   6.600  0.3752 -0.0098 -0.9769
21348SOL    HW265486   6.901   4.000   6.636  0.0852  0.9859  0.9540
21349SOL     OW65487   0.329   3.688   7.786 -0.3637  0.1707  0.1269
21349SOL    HW165488   0.381   3.758   7.747 -1.3081  0.2751 -0.9913
21349SOL    HW265489   0.388   3.646   7.848  0.4798  1.4215  0.2079
21350SOL     OW65490   5.330   4.584   7.754  0.0336 -0.7091 -0.2025
21350SOL    HW165491   5.294   4.627   7.831 -2.3696  2.2506 -2.7014
21350SOL    HW265492   5.254   4.542   7.713  1.2323 -2.1726 -1.0186
21351SOL     OW65493   6.364   5.250   8.722  0.4240  0.0592 -0.1857
21351SOL    HW165494   6.349   5.263   8.628 -2.2298  0.7648  0.2584
21351SOL    HW265495   6.329   5.162   8.740  0.2825  0.2072  0.2674
21352SOL     OW65496   7.232   4.584   7.348  0.0742  0.2246  0.3450
21352SOL    HW165497   7.270   4.665   7.383 -0.5132  0.5673  0.2124
21352SOL    HW265498   7.185   4.545   7.422  0.7234 -0.2303  0.5251
21353SOL     OW65499   6.278   5.038   5.649  0.0913  0.5613 -0.2369
21353SOL    HW165500   6.369   5.014   5.638 -0.5131 -0.7564 -3.5361
21353SOL    HW265501   6.272   5.127   5.614  0.1266  0.7885  0.3131
21354SOL     OW65502   0.707   3.605   9.102  0.1895 -0.0051  0.6848
21354SOL    HW165503   0.715   3.530   9.043  0.3954 -0.1491  0.8928
21354SOL    HW265504   0.621   3.642   9.083  0.9069  0.9627 -0.9041
21355SOL     OW65505   6.931   5.148   8.219  0.1959  0.3504 -0.4685
21355SOL    HW165506   6.899   5.086   8.284  1.2368  0.5369  0.2625
21355SOL    HW265507   6.959   5.093   8.145  1.2443 -0.0849  0.2295
21356SOL     OW65508   6.175   4.873   9.819 -0.1999 -0.1368 -0.3493
21356SOL    HW165509   6.212   4.910   9.739  0.3214 -0.0711 -0.0820
21356SOL    HW265510   6.180   4.944   9.883  1.6508 -0.8896  0.4270
21357SOL     OW65511   6.516   3.703   9.688  0.5793  0.5920 -0.4133
21357SOL    HW165512   6.452   3.640   9.654  1.1978 -0.1102 -0.3182
21357SOL    HW265513   6.581   3.648   9.733  1.0310  1.3188 -0.1676
21358SOL     OW65514   2.156   5.590  10.020  0.8308 -0.1080  0.1189
21358SOL    HW165515   2.113   5.509   9.992  1.0210 -0.9639  2.1315
21358SOL    HW265516   2.244   5.563  10.046  0.6203  0.5633  1.6192
21359SOL     OW65517   6.847   4.746   8.629  0.0641 -0.2989 -0.0518
21359SOL    HW165518   6.875   4.826   8.673  1.9986 -0.3844 -1.0222
21359SOL    HW265519   6.922   4.687   8.637 -1.0661 -1.7722  0.0379
21360SOL     OW65520   6.583   3.839   7.952 -0.1468 -0.1878  0.0275
21360SOL    HW165521   6.563   3.762   8.005  0.2136  0.1787  0.7129
21360SOL    HW265522   6.590   3.806   7.863 -1.3704 -0.7181  0.1012
21361SOL     OW65523   5.576   2.799   8.349  0.4298  0.0010  0.0109
21361SOL    HW165524   5.609   2.889   8.360 -2.2812  1.2471 -1.0712
21361SOL    HW265525   5.629   2.763   8.278  2.1423  0.3705  1.0217
21362SOL     OW65526   7.994   4.410   9.114 -0.3602  0.4402  0.2221
21362SOL    HW165527   7.928   4.479   9.122  0.6432  1.6458 -1.2486
21362SOL    HW265528   8.066   4.439   9.170 -0.5320 -0.1988  0.7824
21363SOL     OW65529   6.742   3.204   8.098  0.6471 -0.0177  0.0808
21363SOL    HW165530   6.793   3.267   8.149  0.3743  0.7252 -0.5488
21363SOL    HW265531   6.787   3.120   8.111  0.0419 -0.0499  2.3014
21364SOL     OW65532   6.118   4.948   7.600 -0.2099 -0.3832  0.2471
21364SOL    HW165533   6.200   4.978   7.561 -0.8659 -1.0962 -1.7950
21364SOL    HW265534   6.110   4.998   7.681  2.3408 -0.4566  0.6321
21365SOL     OW65535   7.683   3.705   9.485 -0.6334 -0.3301 -0.3753
21365SOL    HW165536   7.664   3.798   9.478  1.5848  0.2252  0.0349
21365SOL    HW265537   7.710   3.692   9.576 -0.5827 -1.2990 -0.5078
21366SOL     OW65538   5.531   3.293   8.993  0.4612  1.0796  0.4124
21366SOL    HW165539   5.606   3.239   8.968  1.0174  2.1610 -0.3763
21366SOL    HW265540   5.455   3.240   8.970  0.9548 -0.2108  1.6201
21367SOL     OW65541   6.253   6.010   6.141  0.8410 -0.1035  0.2369
21367SOL    HW165542   6.280   5.937   6.085  0.8128  0.4985 -0.5769
21367SOL    HW265543   6.159   6.001   6.149  0.7820  0.0793 -0.2164
21368SOL     OW65544   5.496   4.951   9.203  0.2415  0.8001 -0.2939
21368SOL    HW165545   5.574   4.989   9.245 -0.4943 -0.1986  2.1650
21368SOL    HW265546   5.526   4.869   9.165  0.7283  1.2336 -0.8509
21369SOL     OW65547   7.061   4.092  10.089 -0.0963  0.4963  0.1546
21369SOL    HW165548   7.113   4.170  10.110 -1.9580  1.5294  1.1678
21369SOL    HW265549   7.013   4.116  10.010  2.2029 -1.1337 -1.9105
21370SOL     OW65550   5.731   4.716   7.623  0.1404  0.0468 -0.7011
21370SOL    HW165551   5.778   4.712   7.706 -0.5683  2.0502 -0.1479
21370SOL    HW265552   5.775   4.785   7.573 -1.9010  1.7517 -0.2919
21371SOL     OW65553   6.269   4.949   9.269  0.4503  0.4181  0.7783
21371SOL    HW165554   6.243   4.988   9.186  0.6745  0.2152  0.6124
21371SOL    HW265555   6.357   4.915   9.253 -1.1274 -3.7306 -0.3432
21372SOL     OW65556   7.683   5.426  10.463 -0.3074  0.7149 -0.1853
21372SOL    HW165557   7.752   5.373  10.502 -0.6359  1.5393  1.5894
21372SOL    HW265558   7.650   5.373  10.391  0.9331 -0.4698  0.0816
21373SOL     OW65559   7.517   4.145   9.317  0.2254  0.8472 -0.0593
21373SOL    HW165560   7.555   4.233   9.325  0.1096  0.7394  2.3243
21373SOL    HW265561   7.519   4.110   9.406 -4.6568  0.4979  0.2070
21374SOL     OW65562   4.432   4.352  10.414 -0.1709 -0.0492  0.2165
21374SOL    HW165563   4.355   4.296  10.425  0.1631  0.0062  3.8204
21374SOL    HW265564   4.477   4.348  10.498  2.8413  1.3449 -1.2055
21375SOL     OW65565   6.130   3.134   8.692 -0.0304  0.4606 -0.0412
21375SOL    HW165566   6.202   3.167   8.638  0.1980  1.2612  0.7223
21375SOL    HW265567   6.054   3.185   8.665 -0.2501 -0.1466 -0.6055
21376SOL     OW65568   6.326   4.634   9.868 -0.7519  0.2112  0.8865
21376SOL    HW165569   6.283   4.718   9.850 -0.3981 -0.0324 -1.5609
21376SOL    HW265570   6.376   4.648   9.948 -1.9814  1.8062  1.4272
21377SOL     OW65571   5.619   1.811   7.562  0.0340 -0.7853 -0.1480
21377SOL    HW165572   5.663   1.785   7.643 -1.6746  2.3013  1.9543
21377SOL    HW265573   5.686   1.854   7.511  0.9566 -2.0858 -0.0898
21378SOL     OW65574   5.223   5.486   8.358  0.5190 -0.2055  0.0496
21378SOL    HW165575   5.283   5.452   8.425  0.8572 -0.8551 -0.5746
21378SOL    HW265576   5.138   5.447   8.379  0.7314 -0.8021 -0.1913
21379SOL     OW65577   5.665   5.311   8.542  0.3052 -0.3915  0.0841
21379SOL    HW165578   5.584   5.267   8.515  0.6927 -3.1248  2.7068
21379SOL    HW265579   5.649   5.335   8.634  2.1944 -0.3248  0.4371
21380SOL     OW65580   0.527   5.919   9.784  0.1566 -0.0274  0.3953
21380SOL    HW165581   0.591   5.945   9.718  0.8186 -0.2543  0.9213
21380SOL    HW265582   0.516   5.997   9.838 -1.4139  0.5782 -0.7647
21381SOL     OW65583   5.331   1.727  10.458  0.1522  0.0399  0.0119
21381SOL    HW165584   5.361   1.767  10.376 -1.0319 -0.8662 -0.8972
21381SOL    HW265585   5.297   1.801  10.509  1.4096  0.6916 -0.0518
21382SOL     OW65586   1.176   2.850   7.896 -0.2720 -0.1082 -0.3596
21382SOL    HW165587   1.209   2.859   7.807 -0.3191  1.6522 -0.2323
21382SOL    HW265588   1.107   2.784   7.890 -1.2030  0.9631 -1.9001
21383SOL     OW65589   7.054   5.777   9.775  0.1291 -0.2240  0.4377
21383SOL    HW165590   7.137   5.792   9.820  0.9368 -0.9757 -0.7440
21383SOL    HW265591   7.047   5.682   9.768 -0.9080 -0.1782  0.6375
21384SOL     OW65592   6.720   6.307   8.479 -0.1612  0.2902 -0.2356
21384SOL    HW165593   6.719   6.325   8.573  0.6254  2.6791 -0.6071
21384SOL    HW265594   6.628   6.299   8.455 -0.3572 -1.4018  0.8466
21385SOL     OW65595   5.513   2.924   9.375  0.7075 -0.2243 -0.3279
21385SOL    HW165596   5.466   2.991   9.326  0.7806  0.9695  1.1461
21385SOL    HW265597   5.602   2.959   9.384 -0.0260  1.1796  3.2400
21386SOL     OW65598   6.547   4.596  11.310  0.7932 -0.1868  0.2481
21386SOL    HW165599   6.514   4.544  11.236  0.0070  0.2945  0.2489
21386SOL    HW265600   6.606   4.660  11.270  1.5987 -0.9272  0.2236
21387SOL     OW65601   0.331   4.135   6.990  0.0985 -0.2721  0.0432
21387SOL    HW165602   0.357   4.075   6.920  0.3342  0.4488 -0.4899
21387SOL    HW265603   0.273   4.198   6.948 -0.0363 -0.0290  0.5749
21388SOL     OW65604   6.126   3.404   9.119 -0.0281  0.1142  0.0613
21388SOL    HW165605   6.149   3.455   9.041  0.1463  0.9139  0.6257
21388SOL    HW265606   6.149   3.314   9.096 -2.6104 -0.1846 -1.9079
21389SOL     OW65607   7.174   6.506   8.828  0.4205  0.3381  0.0837
21389SOL    HW165608   7.139   6.476   8.912  1.4515 -0.2882  0.3148
21389SOL    HW265609   7.255   6.457   8.817  0.0444  0.0110 -1.5459
21390SOL     OW65610   7.047   4.171   8.028 -0.2344  0.1763  0.3995
21390SOL    HW165611   7.132   4.179   7.985 -1.4087 -0.6350 -2.2724
21390SOL    HW265612   7.056   4.223   8.108  2.2336  1.4743 -0.6069
21391SOL     OW65613   6.205   2.317   9.057  0.4858 -0.6104  0.6452
21391SOL    HW165614   6.208   2.224   9.032  1.4797  0.1413 -2.4487
21391SOL    HW265615   6.295   2.339   9.081  0.5012 -0.1500  0.1643
21392SOL     OW65616   6.659   4.695   8.820  0.3232 -0.0038  0.1284
21392SOL    HW165617   6.713   4.719   8.895  0.0308  3.0516 -0.4663
21392SOL    HW265618   6.719   4.695   8.745  0.1062 -0.0096 -0.0492
21393SOL     OW65619   5.193   3.794   8.162  0.1316 -0.4654 -0.0946
21393SOL    HW165620   5.110   3.747   8.160 -0.7491  1.0070  0.4400
21393SOL    HW265621   5.198   3.837   8.076  0.5725 -0.9246 -0.3016
21394SOL     OW65622   5.222   5.279   7.279  0.1510 -0.4155 -0.3579
21394SOL    HW165623   5.153   5.281   7.212  0.0599 -0.6076 -0.2687
21394SOL    HW265624   5.183   5.232   7.353 -0.6937  2.0636  0.8886
21395SOL     OW65625   5.771   5.636   8.686 -0.4840 -0.0422  0.2620
21395SOL    HW165626   5.799   5.646   8.595  0.8284 -1.5031  0.4623
21395SOL    HW265627   5.706   5.706   8.699  2.7070  3.3964 -0.3882
21396SOL     OW65628   6.008   6.052  10.005  0.3558  0.5544 -0.1469
21396SOL    HW165629   6.062   5.974  10.015 -2.5268 -1.9397 -2.0565
21396SOL    HW265630   5.966   6.063  10.091  0.3901 -0.3774  0.0035
21397SOL     OW65631   6.338   4.608   7.754 -0.3027  0.2470  0.1751
21397SOL    HW165632   6.335   4.522   7.712  0.2456 -0.0912  0.8172
21397SOL    HW265633   6.362   4.590   7.845 -1.4540  0.9766  0.6485
21398SOL     OW65634   5.360   2.083   9.925  0.9437  0.4443 -0.5687
21398SOL    HW165635   5.448   2.117   9.913  1.0512  0.1837 -0.5138
21398SOL    HW265636   5.357   2.054  10.016 -0.0298  2.8813  0.2559
21399SOL     OW65637   6.387   4.017  10.153  0.1101  0.3994  0.5315
21399SOL    HW165638   6.377   4.070  10.232 -0.5601 -0.5783  1.1157
21399SOL    HW265639   6.387   3.927  10.184 -0.9247 -0.0347 -0.6313
21400SOL     OW65640   7.088   4.362   8.623  0.1022  0.6335  0.0426
21400SOL    HW165641   7.064   4.431   8.686  1.0942  1.0793 -0.0475
21400SOL    HW265642   7.150   4.405   8.564 -0.3218  0.0329 -0.8475
21401SOL     OW65643   6.112   4.972   5.907  0.4484  0.0741 -0.3499
21401SOL    HW165644   6.171   4.986   5.833 -0.9776  0.3851 -1.4915
21401SOL    HW265645   6.083   4.881   5.898  1.0736 -0.2148  0.4631
21402SOL     OW65646   0.480   3.108   8.850  0.0437  0.0725 -0.0542
21402SOL    HW165647   0.553   3.155   8.809 -0.2285  0.7924  0.2538
21402SOL    HW265648   0.502   3.016   8.840  1.9247  0.2566  1.6225
21403SOL     OW65649   4.402   5.526  10.388 -0.3978  0.0704  0.0650
21403SOL    HW165650   4.481   5.527  10.443 -0.5279  2.2875  0.2994
21403SOL    HW265651   4.390   5.433  10.366  3.5325 -0.2446 -1.7873
21404SOL     OW65652   5.790   6.125   8.885 -0.3497  0.3786  0.4562
21404SOL    HW165653   5.700   6.122   8.853 -0.5217  2.1887  0.7158
21404SOL    HW265654   5.843   6.144   8.807 -0.0628 -1.3925  0.1625
21405SOL     OW65655   7.054   3.941   9.467  0.7531 -0.0802  0.5689
21405SOL    HW165656   7.053   4.035   9.482 -0.6281 -0.1809  1.2867
21405SOL    HW265657   7.022   3.932   9.377  1.7071  0.1631  0.1949
21406SOL     OW65658   6.673   4.298   7.664 -0.3048  0.5628 -0.4703
21406SOL    HW165659   6.662   4.333   7.575 -0.0928 -0.9157 -1.1051
21406SOL    HW265660   6.759   4.256   7.663 -0.6612 -0.2110  0.1717
21407SOL     OW65661   5.618   5.070   8.944 -0.5506 -0.2200 -0.0785
21407SOL    HW165662   5.533   5.028   8.958  0.2634 -1.9144 -0.0703
21407SOL    HW265663   5.597   5.154   8.903 -2.2140 -0.6842 -0.2242
21408SOL     OW65664   7.927   5.748   7.615  0.3737  0.6504 -0.2865
21408SOL    HW165665   7.972   5.767   7.533 -0.0888  0.2484 -0.6411
21408SOL    HW265666   7.972   5.670   7.649  1.6093  1.7397  0.6589
21409SOL     OW65667   7.908   2.393   7.649  0.3970  0.4680  0.1490
21409SOL    HW165668   7.853   2.396   7.571 -0.6829  0.9731  0.9044
21409SOL    HW265669   7.889   2.474   7.696 -0.5195 -0.7137  1.9400
21410SOL     OW65670   7.245   6.023   7.800 -0.1484 -0.3439  0.0365
21410SOL    HW165671   7.236   5.933   7.830 -0.4277 -0.6014 -0.7962
21410SOL    HW265672   7.312   6.061   7.857 -0.3675 -0.9318  0.7032
21411SOL     OW65673   7.391   4.717   8.839 -0.7008 -0.3993  0.1994
21411SOL    HW165674   7.333   4.717   8.762 -1.1281 -0.1003  0.5179
21411SOL    HW265675   7.387   4.807   8.872  0.5993 -0.1639 -0.2568
21412SOL     OW65676   4.879   4.466   9.629  0.3808 -0.6604 -0.3169
21412SOL    HW165677   4.953   4.408   9.606  2.4420  1.0631  1.4735
21412SOL    HW265678   4.893   4.486   9.722  0.2840  3.2979 -1.0052
21413SOL     OW65679   5.467   4.365  10.052 -1.2797 -0.2081  0.4652
21413SOL    HW165680   5.500   4.355  10.141 -1.1965  1.8078  0.7095
21413SOL    HW265681   5.480   4.279  10.012  0.8216 -0.5367  1.6860
21414SOL     OW65682   6.583   2.864   9.233 -0.0903  0.2881  1.1144
21414SOL    HW165683   6.641   2.806   9.283 -1.2794 -0.6474  1.4511
21414SOL    HW265684   6.537   2.806   9.173 -0.7287  1.0037  0.8975
21415SOL     OW65685   7.598   4.070   5.453  0.6318 -0.5179  0.3112
21415SOL    HW165686   7.510   4.095   5.423  0.2578 -2.0160  0.0302
21415SOL    HW265687   7.637   4.027   5.377  1.2035 -0.7872  0.7498
21416SOL     OW65688   5.229   4.715   8.236  0.1890  0.1777 -0.3823
21416SOL    HW165689   5.164   4.645   8.236  1.1533 -0.7562  0.3437
21416SOL    HW265690   5.187   4.787   8.284  0.4348 -1.1914  2.0669
21417SOL     OW65691   7.029   5.201   9.138  0.4668  0.0584 -0.5666
21417SOL    HW165692   7.038   5.244   9.053 -0.3295 -0.8495 -1.1287
21417SOL    HW265693   6.936   5.205   9.158  0.7663  1.2180  0.8125
21418SOL     OW65694   6.965   4.764  10.147 -0.5495  0.2005 -0.4309
21418SOL    HW165695   6.951   4.690  10.205 -2.5808 -0.1864 -1.3104
21418SOL    HW265696   6.988   4.726  10.063  1.0597  0.7040 -0.2464
21419SOL     OW65697   4.986   5.704   7.816  0.0854 -0.0933 -0.2211
21419SOL    HW165698   5.060   5.765   7.822 -0.5022  0.5187  1.1390
21419SOL    HW265699   5.025   5.618   7.835  0.4045  0.2659  0.8219
21420SOL     OW65700   6.469   5.384  10.306  0.1822 -0.6308 -0.3705
21420SOL    HW165701   6.457   5.400  10.399  1.6320 -0.6910 -0.1433
21420SOL    HW265702   6.486   5.290  10.300  1.7226 -0.3750 -0.4688
21421SOL     OW65703   7.235   4.817   8.168 -0.0015  0.7602 -0.2085
21421SOL    HW165704   7.287   4.757   8.115 -0.7978  0.2644 -0.4493
21421SOL    HW265705   7.241   4.901   8.122  1.0754  0.8706  0.1012
21422SOL     OW65706   5.871   3.387   5.998  0.2369 -0.1044  0.2239
21422SOL    HW165707   5.890   3.453   6.065 -0.3532 -0.3776  0.6730
21422SOL    HW265708   5.785   3.413   5.963  0.2066 -0.3788  0.0936
21423SOL     OW65709   7.325   4.389   6.179  0.3645  0.3559 -0.2027
21423SOL    HW165710   7.237   4.374   6.144  0.4264  0.7432 -0.5307
21423SOL    HW265711   7.327   4.340   6.261  0.5499 -1.4785 -1.2369
21424SOL     OW65712   7.237   2.566   9.550 -0.0780 -0.2564  0.3616
21424SOL    HW165713   7.239   2.470   9.547 -2.1405 -0.3779  1.3466
21424SOL    HW265714   7.300   2.588   9.619  1.3213 -0.7950 -0.6962
21425SOL     OW65715   0.261   3.402   8.328  0.3354  0.2550  0.2328
21425SOL    HW165716   0.178   3.437   8.358  0.2031  0.9087 -0.8624
21425SOL    HW265717   0.327   3.444   8.384 -0.0962 -1.1694  1.9281
21426SOL     OW65718   7.298   6.019   8.169  0.3111 -0.1872 -0.3883
21426SOL    HW165719   7.344   6.099   8.195 -0.0362  0.0657 -0.5583
21426SOL    HW265720   7.365   5.967   8.124  0.4294  0.1831 -0.6423
21427SOL     OW65721   5.741   5.897   9.028 -0.2738 -0.2003  0.0059
21427SOL    HW165722   5.781   5.970   8.981  0.2276 -0.7803 -0.5004
21427SOL    HW265723   5.648   5.918   9.032 -0.6289 -0.8284 -2.6858
21428SOL     OW65724   6.340   5.282   9.221 -0.2233  0.0153 -0.1767
21428SOL    HW165725   6.404   5.339   9.264  0.9048 -1.5083  0.2861
21428SOL    HW265726   6.390   5.203   9.199 -1.9105 -1.1683  0.0441
21429SOL     OW65727   7.579   4.858   8.661 -0.7100  0.1736  0.4150
21429SOL    HW165728   7.552   4.784   8.606 -0.5116  0.0318  0.5046
21429SOL    HW265729   7.631   4.818   8.731  1.7615  0.6006 -1.0416
21430SOL     OW65730   6.335   3.463   7.876 -0.8504 -0.2576 -0.0804
21430SOL    HW165731   6.378   3.446   7.792  1.5672  0.2994  0.9799
21430SOL    HW265732   6.381   3.406   7.938 -2.5380 -0.5905  0.9212
21431SOL     OW65733   6.345   5.598   9.856  0.1548  0.0383 -0.9866
21431SOL    HW165734   6.307   5.645   9.781  1.8756 -0.4098 -2.1812
21431SOL    HW265735   6.439   5.597   9.839  0.3426 -2.3586 -0.1170
21432SOL     OW65736   6.164   4.737   9.492 -0.6090 -0.4464 -0.0069
21432SOL    HW165737   6.153   4.664   9.430  0.8722 -0.3526 -0.4204
21432SOL    HW265738   6.259   4.748   9.499 -0.8046  1.1242  0.4498
21433SOL     OW65739   6.776   5.019   7.240  0.4645  0.0912 -0.4392
21433SOL    HW165740   6.820   4.959   7.180 -1.7520  0.5974 -2.7265
21433SOL    HW265741   6.808   5.105   7.216  0.3586  0.2127 -0.1570
21434SOL     OW65742   4.498   5.520   7.612 -0.2561 -0.2883 -0.0127
21434SOL    HW165743   4.505   5.517   7.707 -1.7464  0.2209  0.1472
21434SOL    HW265744   4.539   5.603   7.588 -1.3031  0.3694  0.3790
21435SOL     OW65745   0.488   3.691   9.367  0.2227 -0.1952  0.0270
21435SOL    HW165746   0.456   3.781   9.370 -0.8335 -0.3075 -3.5140
21435SOL    HW265747   0.427   3.645   9.310  1.3628 -2.9031  0.8291
21436SOL     OW65748   5.688   4.442   7.890  0.0756  0.1095  0.4716
21436SOL    HW165749   5.728   4.361   7.920  0.6546  0.7726  1.5361
21436SOL    HW265750   5.756   4.485   7.838 -0.5367 -0.4855 -0.8936
21437SOL     OW65751   0.415   1.623   7.697 -0.1600 -0.0795  0.2462
21437SOL    HW165752   0.447   1.562   7.630 -0.8000 -0.8370  0.6068
21437SOL    HW265753   0.480   1.618   7.767  0.0640  0.0553  0.0472
21438SOL     OW65754   5.453   2.669   7.900  0.0570 -0.1207  0.1430
21438SOL    HW165755   5.473   2.761   7.881  0.3752 -0.3964 -0.9818
21438SOL    HW265756   5.482   2.623   7.821 -2.4213 -0.8927 -0.3776
21439SOL     OW65757   6.040   5.040   8.737 -0.1191 -0.2028 -0.0500
21439SOL    HW165758   6.017   5.108   8.675 -0.0333  0.9269  1.1211
21439SOL    HW265759   5.975   5.047   8.806 -1.0181 -2.3138 -0.5957
21440SOL     OW65760   7.102   4.862   9.367 -0.1177  0.2585  0.2157
21440SOL    HW165761   7.166   4.881   9.436  0.5330  2.0639 -0.8298
21440SOL    HW265762   7.038   4.806   9.410  0.6285  0.7587  2.1062
21441SOL     OW65763   6.898   3.722   9.553 -0.2578 -0.9275 -0.3757
21441SOL    HW165764   6.932   3.804   9.518 -0.1578 -0.3648  0.9628
21441SOL    HW265765   6.803   3.730   9.548 -0.2506 -1.5348 -1.9773
21442SOL     OW65766   7.097   3.235   8.798  0.5686  0.0854 -0.2920
21442SOL    HW165767   7.060   3.322   8.813  0.7989  0.0548  0.5118
21442SOL    HW265768   7.071   3.213   8.709 -0.4088  0.5204 -0.1248
21443SOL     OW65769   5.937   5.246   8.601  0.3552 -0.2810  0.3382
21443SOL    HW165770   5.962   5.316   8.661  1.4882 -1.3089  1.1250
21443SOL    HW265771   5.845   5.264   8.579  0.9298  2.0808 -0.4395
21444SOL     OW65772   6.494   6.508   8.688  0.4932 -0.0704  0.7525
21444SOL    HW165773   6.473   6.435   8.747  0.8768 -0.2701  0.6503
21444SOL    HW265774   6.558   6.560   8.737 -1.4600  1.5046  1.7837
21445SOL     OW65775   7.415   3.951   7.656  0.3470  0.3243  0.1541
21445SOL    HW165776   7.353   4.023   7.643  0.1614 -0.1095 -1.5297
21445SOL    HW265777   7.476   3.985   7.722 -0.6754  1.3962  0.6058
21446SOL     OW65778   6.774   5.339   9.173  0.1417  0.1624 -0.0127
21446SOL    HW165779   6.748   5.419   9.128  0.8034  0.5101  0.2168
21446SOL    HW265780   6.714   5.333   9.248 -0.1797  0.2148 -0.2628
21447SOL     OW65781   5.466   4.023   9.256  0.5785 -0.1930 -0.0504
21447SOL    HW165782   5.455   3.952   9.192 -1.4277 -0.3426  0.3768
21447SOL    HW265783   5.490   4.099   9.204  0.9843 -0.7864 -0.7404
21448SOL     OW65784   0.643   3.776   9.729 -0.0521 -0.3019 -0.5135
21448SOL    HW165785   0.715   3.729   9.687 -0.0966 -0.0809 -0.8502
21448SOL    HW265786   0.564   3.734   9.696 -0.0798 -1.7194  1.2420
21449SOL     OW65787   6.884   4.773   9.561  0.3751  0.2173  0.3337
21449SOL    HW165788   6.938   4.847   9.589 -0.3396  0.7364  0.3578
21449SOL    HW265789   6.801   4.785   9.606  0.9739 -1.8475  2.1463
21450SOL     OW65790   6.629   5.077   9.261  0.3012 -0.1700 -0.1918
21450SOL    HW165791   6.718   5.095   9.293  0.1822 -0.4328  0.3068
21450SOL    HW265792   6.636   5.083   9.166  0.7542  0.2541 -0.1387
21451SOL     OW65793   5.741   5.607   9.075  0.1601  0.1876  0.0923
21451SOL    HW165794   5.730   5.699   9.054 -0.0175  0.4639  1.3222
21451SOL    HW265795   5.815   5.605   9.136  0.3028 -0.5085 -0.0930
21452SOL     OW65796   5.911   4.034   8.407 -0.5964  0.4742  0.5007
21452SOL    HW165797   5.855   4.112   8.408  0.2423  1.0973 -0.4275
21452SOL    HW265798   5.850   3.961   8.425 -1.3418  1.3419  1.6892
21453SOL     OW65799   6.678   4.201   8.047  0.2458 -0.2207  0.5096
21453SOL    HW165800   6.644   4.277   8.000  1.0147 -1.0252 -1.4505
21453SOL    HW265801   6.633   4.204   8.132 -1.1813  1.3185 -0.2258
21454SOL     OW65802   7.738   7.745   7.928 -0.9990 -0.3047  0.3776
21454SOL    HW165803   7.735   7.652   7.948 -3.6090 -0.6074 -1.0488
21454SOL    HW265804   7.830   7.763   7.910 -0.3787 -2.4837  1.0938
21455SOL     OW65805   5.694   4.246   9.291 -0.8046  0.4158  0.3715
21455SOL    HW165806   5.631   4.291   9.346  0.0460  0.2483  1.5152
21455SOL    HW265807   5.729   4.176   9.346  1.0319  1.0669  0.1123
21456SOL     OW65808   5.915   3.846   7.752  0.0419  0.1200 -0.4185
21456SOL    HW165809   5.829   3.877   7.778 -0.2104 -2.3900  2.3112
21456SOL    HW265810   5.899   3.788   7.677 -0.7467 -0.7414  0.3995
21457SOL     OW65811   5.527   6.136   8.735 -0.4858  0.0242 -0.3273
21457SOL    HW165812   5.477   6.100   8.662  0.7026  0.0819 -1.1970
21457SOL    HW265813   5.508   6.230   8.734 -0.1679  0.0879 -0.8249
21458SOL     OW65814   6.596   3.386   8.312 -0.3449  0.0439  0.2098
21458SOL    HW165815   6.652   3.431   8.248 -0.0734 -1.7108 -0.8517
21458SOL    HW265816   6.522   3.354   8.261 -0.4398 -0.8539  0.8935
21459SOL     OW65817   5.354   3.572   8.210  0.2285 -0.4209 -0.3486
21459SOL    HW165818   5.424   3.636   8.221  0.3580 -0.2154 -2.0747
21459SOL    HW265819   5.274   3.619   8.233  0.4387  0.0260 -0.5299
21460SOL     OW65820   6.223   5.380   9.482  0.4592 -0.2365 -0.3175
21460SOL    HW165821   6.185   5.329   9.410 -2.3761  1.3060 -0.0916
21460SOL    HW265822   6.188   5.339   9.561  0.9395 -0.0113  0.0164
21461SOL     OW65823   5.900   3.744   9.528 -0.0763 -0.2702  0.2745
21461SOL    HW165824   5.905   3.751   9.623 -2.2586 -0.5843  0.4606
21461SOL    HW265825   5.990   3.756   9.498  0.4477  1.1653  2.2727
21462SOL     OW65826   5.499   5.297   7.254 -0.4400 -0.6001 -0.7775
21462SOL    HW165827   5.545   5.219   7.222 -0.5139 -0.6016 -0.8808
21462SOL    HW265828   5.410   5.268   7.270 -0.7613 -0.2757 -1.8929
21463SOL     OW65829   6.687   3.456   8.561  0.2015  0.6625  0.0211
21463SOL    HW165830   6.676   3.434   8.469  0.5392  1.8981 -0.3460
21463SOL    HW265831   6.683   3.373   8.607 -1.4579  0.1464 -0.9504
21464SOL     OW65832   6.820   5.093   9.737  0.4513  0.9685 -0.6470
21464SOL    HW165833   6.847   5.045   9.815  2.5090  0.2997 -1.6920
21464SOL    HW265834   6.781   5.174   9.770  2.1116  1.1157  1.0702
21465SOL     OW65835   6.147   6.252   6.931  0.1486 -0.0273 -0.2369
21465SOL    HW165836   6.062   6.292   6.946 -0.0694 -0.5411 -0.0731
21465SOL    HW265837   6.158   6.191   7.004  1.4608  1.3206  0.7639
21466SOL     OW65838   6.720   5.581   9.083  0.2050  0.1043 -0.4009
21466SOL    HW165839   6.709   5.672   9.110  0.1181 -0.7221  2.6875
21466SOL    HW265840   6.688   5.579   8.992 -1.1333  2.8495 -0.0931
21467SOL     OW65841   6.158   3.420   9.394  0.0041 -0.7840  0.0287
21467SOL    HW165842   6.156   3.418   9.298 -0.3346 -0.9959  0.0400
21467SOL    HW265843   6.248   3.446   9.415  0.0972 -0.7934 -0.3434
21468SOL     OW65844   0.814   4.336   7.222 -0.2419 -0.0436  0.4456
21468SOL    HW165845   0.729   4.293   7.223 -0.0112 -0.5279 -0.2512
21468SOL    HW265846   0.811   4.395   7.147 -0.1024  0.2431  0.6598
21469SOL     OW65847   0.200   4.099   9.090 -0.0819  0.6376 -0.2066
21469SOL    HW165848   0.105   4.110   9.083  0.0281  2.3766  0.3783
21469SOL    HW265849   0.221   4.030   9.027 -1.7654 -0.0248 -0.0959
21470SOL     OW65850   5.584   4.926   7.307 -0.5630 -0.4726  0.2437
21470SOL    HW165851   5.602   4.843   7.351 -0.3435  0.2275  1.5232
21470SOL    HW265852   5.630   4.992   7.360 -3.1751  0.8414  1.0612
21471SOL     OW65853   5.642   6.196   7.514 -0.0259  0.2229  0.0831
21471SOL    HW165854   5.599   6.202   7.599 -4.0297 -1.4793 -1.5229
21471SOL    HW265855   5.604   6.267   7.462 -0.3539 -0.8161 -1.1789
21472SOL     OW65856   6.061   3.501   9.993 -0.0208 -0.1958  0.4470
21472SOL    HW165857   6.111   3.582   9.996  0.6849 -0.6204  0.3072
21472SOL    HW265858   5.986   3.516  10.051  0.9042  0.0148  1.6148
21473SOL     OW65859   7.603   2.337   9.967  0.4589 -0.0398  0.0690
21473SOL    HW165860   7.560   2.292   9.894  0.5881  1.8502 -1.2432
21473SOL    HW265861   7.559   2.303  10.045  0.1663 -1.9707 -0.8674
21474SOL     OW65862   5.313   4.392  10.345 -0.0575  0.1001  0.1957
21474SOL    HW165863   5.270   4.469  10.306  1.1276  0.9371  0.4851
21474SOL    HW265864   5.280   4.391  10.435 -0.9162 -0.3906 -0.1147
21475SOL     OW65865   3.802   5.489  12.257 -0.1247 -0.1266  0.2729
21475SOL    HW165866   3.831   5.580  12.267  0.1388 -0.1394 -0.3438
21475SOL    HW265867   3.849   5.457  12.181  1.0198 -1.2991  1.4208
21476SOL     OW65868   6.706   5.941  10.155  0.0509 -0.0808 -0.2882
21476SOL    HW165869   6.750   5.871  10.107  0.2434 -0.2468  0.1253
21476SOL    HW265870   6.735   6.022  10.113  0.2559 -0.2218 -0.4166
21477SOL     OW65871   6.053   4.155   9.457  0.1741 -0.4224  0.7254
21477SOL    HW165872   6.064   4.236   9.506  2.8945 -0.1496 -0.1461
21477SOL    HW265873   6.114   4.093   9.498  0.7359 -0.9108 -0.7691
21478SOL     OW65874   7.702   3.375  10.269  0.0082 -0.5842  0.2485
21478SOL    HW165875   7.761   3.320  10.321 -0.4456 -0.5776  0.7773
21478SOL    HW265876   7.677   3.320  10.195  0.4261 -0.6976  0.1884
21479SOL     OW65877   5.173   4.135  11.981 -0.4581 -0.1618  0.0688
21479SOL    HW165878   5.101   4.178  12.026 -3.1517 -0.3487 -3.6622
21479SOL    HW265879   5.209   4.202  11.923  0.8202 -0.7448  0.1547
21480SOL     OW65880   6.909   2.738  12.037 -0.1581 -0.4464 -0.2335
21480SOL    HW165881   6.901   2.777  12.124 -0.9169  3.1500 -1.7107
21480SOL    HW265882   6.818   2.729  12.007  0.1212 -0.2048 -1.1857
21481SOL     OW65883   4.497   5.076  11.983  0.0238  0.1949 -0.0604
21481SOL    HW165884   4.516   5.031  12.066  1.7810  0.4009 -0.3093
21481SOL    HW265885   4.430   5.140  12.004 -0.3699 -0.5346  0.9519
21482SOL     OW65886   6.278   6.222  11.257 -0.6599 -0.1899 -0.1427
21482SOL    HW165887   6.306   6.242  11.346 -1.6037 -0.4829  0.2406
21482SOL    HW265888   6.288   6.304  11.210 -1.1551  0.2593  0.5116
21483SOL     OW65889   5.113   6.301   9.889  0.1572 -0.2716  0.4637
21483SOL    HW165890   5.116   6.368   9.957  0.1494  0.2598 -0.0515
21483SOL    HW265891   5.033   6.320   9.840  0.9769  0.3430 -0.6854
21484SOL     OW65892   6.976   4.399  11.750 -0.8767 -0.2490  0.3605
21484SOL    HW165893   7.064   4.361  11.742 -0.3378  1.1375 -0.8236
21484SOL    HW265894   6.991   4.494  11.744 -2.4555  0.0097  0.1820
21485SOL     OW65895   4.359   5.742  11.126  0.7058  0.0842  0.4695
21485SOL    HW165896   4.355   5.705  11.214  3.0265 -0.0933  0.5645
21485SOL    HW265897   4.317   5.827  11.133 -1.5485 -1.0110  1.0794
21486SOL     OW65898   5.789   5.465  10.948  0.1153  0.2139  0.1631
21486SOL    HW165899   5.869   5.518  10.954  0.6997 -0.5332 -0.7368
21486SOL    HW265900   5.782   5.444  10.855 -0.6460 -0.4830  0.3733
21487SOL     OW65901   4.454   6.398  10.467  0.2662 -0.6904  0.3684
21487SOL    HW165902   4.528   6.379  10.525 -0.2630  0.0811  1.3096
21487SOL    HW265903   4.494   6.447  10.395  0.5657  0.4402  1.2752
21488SOL     OW65904   7.051   3.555  11.472  0.0398  0.0545  0.6000
21488SOL    HW165905   7.085   3.487  11.415  0.9997  2.5271 -2.0288
21488SOL    HW265906   6.961   3.568  11.443  0.3784  0.9856 -0.0829
21489SOL     OW65907   5.115   5.639  10.595  0.1606 -0.3729 -0.1581
21489SOL    HW165908   5.181   5.574  10.568 -1.1725 -2.0192  0.3942
21489SOL    HW265909   5.155   5.683  10.670  0.7047 -1.2674  0.0957
21490SOL     OW65910   5.363   5.611   9.409  0.0823 -0.2195  0.4321
21490SOL    HW165911   5.380   5.566   9.326 -0.6809  1.0614 -0.4546
21490SOL    HW265912   5.450   5.630   9.444  0.4203 -0.5068 -0.2309
21491SOL     OW65913   5.952   6.463  10.021 -0.5595  0.1829  0.2942
21491SOL    HW165914   5.872   6.415  10.047 -0.8073  0.8792  0.8386
21491SOL    HW265915   5.986   6.413   9.946 -2.4141  0.8015 -1.0379
21492SOL     OW65916   4.780   4.854  10.871  0.8466 -0.4490 -0.1140
21492SOL    HW165917   4.756   4.855  10.963  3.5022  0.5465  0.6685
21492SOL    HW265918   4.728   4.783  10.833 -1.2594 -0.0368  1.8323
21493SOL     OW65919   7.774   4.898  10.233 -0.0010 -0.1876 -0.2801
21493SOL    HW165920   7.803   4.977  10.279 -0.7615 -0.1700  0.1803
21493SOL    HW265921   7.849   4.873  10.179  1.5124 -1.0883  2.0798
21494SOL     OW65922   5.064   3.254   9.675  0.3702  0.3938  0.1237
21494SOL    HW165923   5.053   3.310   9.752 -1.2535 -1.4311  1.3115
21494SOL    HW265924   5.028   3.306   9.602 -3.0139  0.2895  1.5152
21495SOL     OW65925   7.266   5.364  10.857 -0.3326 -0.0925 -0.4181
21495SOL    HW165926   7.346   5.332  10.817  0.6166 -0.3039  1.5488
21495SOL    HW265927   7.295   5.424  10.925 -1.6628 -1.7159  1.7457
21496SOL     OW65928   3.948   6.706  10.551  0.0961  0.1489 -0.2645
21496SOL    HW165929   4.002   6.663  10.618  2.2057  0.4412 -1.6778
21496SOL    HW265930   3.910   6.781  10.596 -0.6018 -1.0407  1.2383
21497SOL     OW65931   6.240   2.839   9.557  0.1752 -0.0395 -0.8715
21497SOL    HW165932   6.231   2.781   9.633  1.6617  0.7048 -0.0965
21497SOL    HW265933   6.153   2.839   9.517 -0.3674 -1.2605  0.2298
21498SOL     OW65934   3.830   4.212  10.984 -0.2179  0.4633 -0.2209
21498SOL    HW165935   3.827   4.308  10.979  0.1570  0.6096  1.5829
21498SOL    HW265936   3.897   4.194  11.049 -2.5073 -0.8843  1.9447
21499SOL     OW65937   5.438   4.866  11.234  0.1189  0.1738 -0.1542
21499SOL    HW165938   5.405   4.953  11.210  1.3274  0.7964  0.3614
21499SOL    HW265939   5.359   4.812  11.241 -0.6746  1.2752 -0.2779
21500SOL     OW65940   6.203   5.934   9.715 -0.4986  0.2084  0.2415
21500SOL    HW165941   6.218   5.899   9.804 -1.5895 -0.0022  0.3581
21500SOL    HW265942   6.174   5.858   9.665 -0.3224  0.4218 -0.1856
21501SOL     OW65943   5.289   4.402   9.660  0.3419  0.0200  0.1931
21501SOL    HW165944   5.370   4.354   9.677 -0.6602 -1.1332  1.9457
21501SOL    HW265945   5.273   4.452   9.739 -1.3495 -0.8290  0.4435
21502SOL     OW65946   7.482   6.322   9.984  0.4919  0.4903 -0.5181
21502SOL    HW165947   7.550   6.390   9.984  0.0126  0.9854  0.3847
21502SOL    HW265948   7.528   6.242  10.010  0.4085  1.2133  2.1244
21503SOL     OW65949   6.873   4.979   8.408 -0.0993 -0.3838 -0.0448
21503SOL    HW165950   6.833   4.893   8.391 -1.1114  0.4604 -2.3314
21503SOL    HW265951   6.819   5.017   8.477 -1.8325 -0.2474 -1.4117
21504SOL     OW65952   6.278   5.761  12.043 -0.3305  0.5175 -0.1106
21504SOL    HW165953   6.205   5.820  12.028  1.2301  2.5805  0.0603
21504SOL    HW265954   6.301   5.774  12.134  1.9784  2.0639 -0.8270
21505SOL     OW65955   5.589   5.244  10.444  0.1657  0.5160  0.4748
21505SOL    HW165956   5.641   5.322  10.426  0.9864 -0.0608  0.2856
21505SOL    HW265957   5.596   5.231  10.539  0.6218  0.2701  0.4093
21506SOL     OW65958   6.578   5.332  10.807  0.2958  0.2077  0.0282
21506SOL    HW165959   6.561   5.408  10.862  0.5043  0.5730 -0.4030
21506SOL    HW265960   6.513   5.338  10.737  1.6211  1.1538 -1.1706
21507SOL     OW65961   6.328   4.985   8.703 -0.2571  0.0752  0.1827
21507SOL    HW165962   6.236   4.973   8.727 -0.5791  1.5853 -0.2308
21507SOL    HW265963   6.344   4.921   8.634 -0.4867 -1.4109  1.4465
21508SOL     OW65964   5.256   2.556   9.329 -0.3906 -0.3505 -0.0499
21508SOL    HW165965   5.206   2.577   9.407 -0.5298  0.9274 -0.4678
21508SOL    HW265966   5.347   2.566   9.355 -0.4162 -0.5295  0.1115
21509SOL     OW65967   5.313   5.820   9.217 -0.6005  0.7017 -0.2252
21509SOL    HW165968   5.317   5.777   9.303  1.3414 -0.7454 -0.9645
21509SOL    HW265969   5.274   5.755   9.159 -0.9779  1.2948 -0.6466
21510SOL     OW65970   0.334   4.178   9.473 -0.0701  0.0668 -0.0575
21510SOL    HW165971   0.407   4.153   9.529  0.9387  0.2228 -1.2528
21510SOL    HW265972   0.256   4.158   9.524  0.7887 -1.0538  0.8612
21511SOL     OW65973   5.236   5.377  11.059  0.3129  0.1514  0.0460
21511SOL    HW165974   5.176   5.347  11.128  1.8682 -0.0008  1.3770
21511SOL    HW265975   5.298   5.435  11.103  2.8195 -1.8007 -0.6453
21512SOL     OW65976   0.312   3.166  10.394 -0.6034  0.4113 -0.1852
21512SOL    HW165977   0.232   3.185  10.344 -0.8152 -1.4185 -0.5921
21512SOL    HW265978   0.338   3.251  10.430 -1.0193  1.6222 -2.5439
21513SOL     OW65979   6.055   4.135  11.432  0.0385 -0.3778 -0.3168
21513SOL    HW165980   6.144   4.170  11.436 -0.2647  0.4756 -0.8399
21513SOL    HW265981   6.047   4.100  11.343 -0.4999  0.5226 -0.6293
21514SOL     OW65982   4.821   4.683   9.269 -0.0617 -0.5720  0.0123
21514SOL    HW165983   4.897   4.656   9.218 -0.8787 -1.1826 -0.9189
21514SOL    HW265984   4.753   4.619   9.248 -0.6097 -0.5144  1.4457
21515SOL     OW65985   5.501   4.763  10.915 -0.2369  0.0598 -0.0365
21515SOL    HW165986   5.411   4.754  10.883 -0.6440 -2.7575  1.5744
21515SOL    HW265987   5.492   4.798  11.003  0.2437 -0.2385  0.1352
21516SOL     OW65988   4.490   3.804  10.386  0.2410  0.0851 -0.5691
21516SOL    HW165989   4.492   3.881  10.443 -0.4105  0.6410 -1.2593
21516SOL    HW265990   4.435   3.741  10.431 -0.0099  0.3978 -0.4373
21517SOL     OW65991   5.741   4.711  12.147  0.2410 -0.0948  0.2415
21517SOL    HW165992   5.792   4.738  12.223  0.2544 -0.7598  0.4743
21517SOL    HW265993   5.701   4.628  12.173  0.7765 -0.6707 -0.6994
21518SOL     OW65994   6.813   1.783   8.387 -0.0808 -0.5782  0.1355
21518SOL    HW165995   6.876   1.855   8.384  0.1024 -0.6301  1.7542
21518SOL    HW265996   6.863   1.710   8.426 -0.8815 -0.8799  0.6166
21519SOL     OW65997   7.154   3.377  11.307  0.6773 -0.6917 -0.2150
21519SOL    HW165998   7.241   3.393  11.344  0.4252 -0.1478  0.1462
21519SOL    HW265999   7.162   3.407  11.216  0.2321  1.5804  0.4228
21520SOL     OW66000   7.458   4.105   9.941  0.6598 -0.0463  0.5235
21520SOL    HW166001   7.510   4.035   9.980  0.3605 -1.5038 -1.5216
21520SOL    HW266002   7.511   4.137   9.868 -0.2931  0.0630 -0.1426
21521SOL     OW66003   5.419   5.793  10.390  0.0842  0.0345  0.7933
21521SOL    HW166004   5.448   5.840  10.312  1.7768  0.3511  1.5820
21521SOL    HW266005   5.482   5.817  10.458  0.5766 -2.7383  1.4383
21522SOL     OW66006   5.965   6.757   9.475 -0.3350 -0.4240  0.0559
21522SOL    HW166007   5.972   6.666   9.504 -1.2365 -0.4539  0.2088
21522SOL    HW266008   5.966   6.752   9.379 -1.0345 -0.6505  0.0617
21523SOL     OW66009   7.436   6.434  11.564 -0.1028  0.0808 -0.0779
21523SOL    HW166010   7.441   6.387  11.481  0.2612  0.5093 -0.3017
21523SOL    HW266011   7.514   6.489  11.565  0.2847 -0.4736  0.8882
21524SOL     OW66012   7.922   2.891  10.807 -0.2977 -0.0073 -0.3882
21524SOL    HW166013   7.891   2.946  10.879 -0.0656 -0.6116  0.1809
21524SOL    HW266014   8.007   2.859  10.835  0.6997  1.2963 -1.7606
21525SOL     OW66015   5.805   2.327  10.461  0.2055  0.0012  0.2662
21525SOL    HW166016   5.735   2.279  10.416 -2.0309  0.9102  2.5030
21525SOL    HW266017   5.858   2.260  10.503 -1.8184 -0.7112  1.8821
21526SOL     OW66018   5.926   4.868   9.298 -0.2122  0.3551  0.1264
21526SOL    HW166019   5.855   4.932   9.299  0.7988  1.5387 -0.5573
21526SOL    HW266020   5.895   4.800   9.237 -1.7651 -0.4299  1.6974
21527SOL     OW66021   7.912   5.816  10.220  0.5754  0.3488 -0.0097
21527SOL    HW166022   7.984   5.860  10.265  0.5236 -2.0763  2.7883
21527SOL    HW266023   7.851   5.887  10.197  2.2190  2.0801  0.7459
21528SOL     OW66024   5.386   6.675   0.604  0.2910  0.1850 -0.7689
21528SOL    HW166025   5.478   6.658   0.626  0.6801  1.6050 -1.2044
21528SOL    HW266026   5.344   6.690   0.688  0.8996  1.4770 -0.6642
21529SOL     OW66027   5.339   4.635   8.541  0.3162  0.5906  0.2494
21529SOL    HW166028   5.417   4.592   8.506 -0.4813 -0.0816 -0.7717
21529SOL    HW266029   5.270   4.570   8.532 -0.1151  0.6576  2.4278
21530SOL     OW66030   4.832   4.728  10.484  0.1643 -0.0325 -0.5753
21530SOL    HW166031   4.830   4.633  10.496  0.9024 -0.2926 -2.1560
21530SOL    HW266032   4.743   4.756  10.503 -0.2933 -1.1713 -0.9156
21531SOL     OW66033   5.645   5.318  10.123 -0.1630 -0.1725 -0.0434
21531SOL    HW166034   5.702   5.366  10.063 -0.7434  1.4190  0.6289
21531SOL    HW266035   5.622   5.238  10.075  1.5117 -0.2187 -0.8549
21532SOL     OW66036   6.592   6.153   9.877 -0.1301  0.1628  0.0915
21532SOL    HW166037   6.547   6.080   9.836  0.1088  0.6368 -1.0587
21532SOL    HW266038   6.537   6.229   9.859 -0.2914  0.3043  1.1288
21533SOL     OW66039   7.951   5.181   8.592  0.2868  0.4245  0.3257
21533SOL    HW166040   7.961   5.241   8.666 -0.7546  0.8521  0.1390
21533SOL    HW266041   8.015   5.112   8.608  0.1910  0.5949  1.5444
21534SOL     OW66042   4.044   5.542  10.339 -0.0207 -0.5723 -0.0275
21534SOL    HW166043   4.014   5.482  10.270 -0.8857 -0.0393 -0.1252
21534SOL    HW266044   4.053   5.627  10.294 -0.9550 -0.1339  0.5865
21535SOL     OW66045   6.027   5.272   9.061 -0.0651  0.6127  0.6621
21535SOL    HW166046   6.086   5.347   9.072  0.0559  0.3840  1.7904
21535SOL    HW266047   5.942   5.311   9.041  0.0616  1.0433  0.9365
21536SOL     OW66048   5.902   6.468   8.488  0.3461  0.0983 -0.1417
21536SOL    HW166049   5.826   6.524   8.471 -0.4789 -1.1983 -0.9208
21536SOL    HW266050   5.970   6.502   8.429 -1.0251 -1.3868 -2.7743
21537SOL     OW66051   6.644   3.721  10.418 -0.1418 -0.1691  0.2032
21537SOL    HW166052   6.647   3.681  10.505 -0.4915  0.4669  0.5127
21537SOL    HW266053   6.688   3.805  10.428 -0.9330  0.2879 -0.0205
21538SOL     OW66054   6.279   4.331   9.668 -0.1720  0.5522  0.1658
21538SOL    HW166055   6.203   4.387   9.654 -0.0938  0.5835 -0.1454
21538SOL    HW266056   6.279   4.271   9.593  0.3820  0.8663 -0.0940
21539SOL     OW66057   7.020   3.040  10.259 -0.1691  0.6412  0.5097
21539SOL    HW166058   6.995   3.053  10.167  0.0787  0.8771  0.4742
21539SOL    HW266059   7.106   2.999  10.254  0.3754  1.7320  0.6372
21540SOL     OW66060   4.857   5.705  11.952  0.0942  0.1029  0.1046
21540SOL    HW166061   4.849   5.795  11.984  0.4108  0.2051 -0.0981
21540SOL    HW266062   4.951   5.689  11.948  0.0992  0.3899 -1.5795
21541SOL     OW66063   7.226   4.485  10.398  0.1157  0.0548 -0.3474
21541SOL    HW166064   7.289   4.536  10.346  0.3538 -1.5726 -1.7526
21541SOL    HW266065   7.281   4.427  10.450 -0.1738  0.7548  0.7738
21542SOL     OW66066   6.202   3.776   9.401 -0.7284 -0.9238  0.3937
21542SOL    HW166067   6.219   3.690   9.362 -1.5815 -0.9173 -0.0219
21542SOL    HW266068   6.284   3.800   9.444 -0.2286 -1.5836 -0.1749
21543SOL     OW66069   5.814   5.026  10.039 -0.5820  0.0964  0.0660
21543SOL    HW166070   5.846   4.964   9.973  0.8019 -0.3685  1.1174
21543SOL    HW266071   5.828   5.112  10.000  0.9989 -0.1383  0.0292
21544SOL     OW66072   5.176   4.646   7.962  0.7063  0.0239  0.1657
21544SOL    HW166073   5.139   4.567   8.002  1.4107 -0.4015  0.0023
21544SOL    HW266074   5.231   4.684   8.030  0.2835  0.4333  0.2784
21545SOL     OW66075   6.279   4.273   9.925  0.1707  0.0335 -0.2856
21545SOL    HW166076   6.258   4.300   9.835  0.0542  0.5924 -0.0947
21545SOL    HW266077   6.308   4.182   9.916  0.1875  0.0910 -0.8937
21546SOL     OW66078   4.701   3.805   9.923 -0.2292 -0.3114 -0.8254
21546SOL    HW166079   4.622   3.837   9.878 -0.0072  1.8821  0.2246
21546SOL    HW266080   4.674   3.795  10.014  1.0540  2.2321 -0.0641
21547SOL     OW66081   5.175   5.334  10.552  0.2191  0.1559 -0.0397
21547SOL    HW166082   5.254   5.375  10.517  1.6601 -1.5949  0.9836
21547SOL    HW266083   5.172   5.361  10.644 -1.5597  1.8481 -0.5348
21548SOL     OW66084   7.522   5.327  10.287  0.4237 -0.2691 -0.4452
21548SOL    HW166085   7.435   5.356  10.314  0.6033 -1.8654  2.1760
21548SOL    HW266086   7.504   5.265  10.216 -0.6237 -0.6983  0.1630
21549SOL     OW66087   5.715   5.064  11.925 -0.4117 -0.3149  0.4600
21549SOL    HW166088   5.630   5.022  11.939 -0.5855 -0.6726 -1.3907
21549SOL    HW266089   5.762   5.051  12.007 -0.9215 -3.0552  0.4143
21550SOL     OW66090   7.923   5.724  10.675  0.1970  0.1116  0.0948
21550SOL    HW166091   7.976   5.664  10.727 -1.3984 -0.7222  0.8628
21550SOL    HW266092   7.926   5.807  10.723  1.4019  0.3052 -0.2959
21551SOL     OW66093   0.810   3.658   9.563 -0.4422 -0.1812 -0.1620
21551SOL    HW166094   0.882   3.711   9.528  0.1189 -1.2976 -0.7497
21551SOL    HW266095   0.779   3.608   9.487 -1.6184  0.0305  0.1662
21552SOL     OW66096   5.250   5.033  10.473  0.0397 -0.0198  0.4365
21552SOL    HW166097   5.297   5.116  10.472 -0.6148  0.4504  2.4838
21552SOL    HW266098   5.252   5.002  10.383  0.0484  2.3658 -0.4495
21553SOL     OW66099   3.942   3.933  11.809 -0.1332  0.5403 -0.3639
21553SOL    HW166100   3.990   3.907  11.731 -2.1404  0.8091 -1.7588
21553SOL    HW266101   3.926   3.851  11.856 -0.0652  0.2049 -0.9234
21554SOL     OW66102   3.880   4.947   9.891 -0.2482  0.0186  0.5333
21554SOL    HW166103   3.961   4.956   9.842  0.7403 -0.1612  2.0470
21554SOL    HW266104   3.905   4.968   9.982 -1.8611 -0.1652  1.0479
21555SOL     OW66105   5.434   6.740   9.022 -0.0459 -0.1523 -0.1067
21555SOL    HW166106   5.438   6.704   8.933  0.5638 -0.7243  0.1430
21555SOL    HW266107   5.346   6.716   9.053 -0.0070 -0.5648 -0.3038
21556SOL     OW66108   6.197   5.256   9.763 -0.4599  0.1842 -0.4732
21556SOL    HW166109   6.289   5.280   9.767  0.0014 -1.2602 -1.6639
21556SOL    HW266110   6.180   5.210   9.846 -0.4002  1.3547  0.1974
21557SOL     OW66111   0.507   4.839   9.535  0.1234  0.5690 -0.7461
21557SOL    HW166112   0.512   4.812   9.443  0.0030  0.6236 -0.7694
21557SOL    HW266113   0.495   4.934   9.532  0.6401  0.6415 -0.6624
21558SOL     OW66114   7.764   2.981  10.253  0.0813 -0.3422  0.2412
21558SOL    HW166115   7.814   2.973  10.334  0.8799 -1.0428 -0.2976
21558SOL    HW266116   7.821   3.031  10.194 -0.2242 -0.3759 -0.0874
21559SOL     OW66117   6.123   4.439  10.094  0.4931  0.4356 -0.7983
21559SOL    HW166118   6.062   4.365  10.091  0.3082  0.6130 -1.4984
21559SOL    HW266119   6.193   4.415  10.033  1.6137 -0.1672  0.6463
21560SOL     OW66120   7.028   4.690  10.525  0.2457 -0.4145 -0.4966
21560SOL    HW166121   7.021   4.645  10.441  0.1486 -0.3440 -0.5262
21560SOL    HW266122   7.114   4.666  10.558  0.5860  0.1499 -0.9550
21561SOL     OW66123   7.617   3.804   7.865 -0.0765  0.0589  0.3040
21561SOL    HW166124   7.677   3.846   7.927  0.2936  1.4292 -0.9084
21561SOL    HW266125   7.530   3.828   7.896  0.0569 -0.2777  0.9614
21562SOL     OW66126   6.049   3.371  10.539  0.1906  0.3036 -0.0132
21562SOL    HW166127   5.965   3.417  10.537 -1.0603 -1.7795  0.8678
21562SOL    HW266128   6.060   3.339  10.450 -0.2899  0.0347  0.0188
21563SOL     OW66129   6.271   5.273  11.149  0.7485 -0.0693  0.3003
21563SOL    HW166130   6.232   5.211  11.087  0.4588  1.0251 -0.6358
21563SOL    HW266131   6.208   5.345  11.153  2.1085  1.1873 -0.3248
21564SOL     OW66132   5.008   5.843  11.015 -0.8138 -0.0284 -0.3223
21564SOL    HW166133   4.952   5.774  10.979 -0.2794 -0.3661 -0.5063
21564SOL    HW266134   5.043   5.806  11.096 -0.7223  0.1180 -0.2946
21565SOL     OW66135   7.662   7.460   9.604  0.4347 -0.1315 -0.3040
21565SOL    HW166136   7.653   7.393   9.536  1.3664  0.7952 -1.3925
21565SOL    HW266137   7.661   7.411   9.687  1.7328 -1.5687 -1.0912
21566SOL     OW66138   6.418   5.364  10.577  0.4159  0.4726 -0.1281
21566SOL    HW166139   6.360   5.437  10.557  0.1858  0.0561 -1.0341
21566SOL    HW266140   6.361   5.288  10.582  0.6565  0.3343  0.7903
21567SOL     OW66141   0.193   3.028   8.759  0.0362 -0.8329  0.4504
21567SOL    HW166142   0.286   3.047   8.747  0.2852 -2.6761 -1.0092
21567SOL    HW266143   0.155   3.040   8.672 -1.6692  2.2824  1.4480
21568SOL     OW66144   6.326   3.489   9.776  0.3336  0.1545  0.9753
21568SOL    HW166145   6.332   3.399   9.743 -0.7475 -0.3900  2.1565
21568SOL    HW266146   6.253   3.487   9.838 -1.5572  2.4410 -0.9240
21569SOL     OW66147   5.654   4.541  10.933 -0.5747  0.1539 -0.4834
21569SOL    HW166148   5.599   4.618  10.918 -1.1280  0.5449  2.8440
21569SOL    HW266149   5.744   4.574  10.926 -0.8062  1.0557  0.5552
21570SOL     OW66150   6.429   5.710  11.169 -0.0902 -0.5205 -0.1782
21570SOL    HW166151   6.398   5.766  11.098  0.1571  0.2778  0.3309
21570SOL    HW266152   6.506   5.755  11.204  0.8869 -1.8267 -0.5885
21571SOL     OW66153   5.878   5.193  10.552 -0.0565  0.4163 -0.3263
21571SOL    HW166154   5.836   5.165  10.634  1.4689  0.4825  0.5202
21571SOL    HW266155   5.828   5.149  10.483 -0.1243 -1.3089  0.7643
21572SOL     OW66156   7.145   3.109  10.929  0.8934  0.0101  0.4822
21572SOL    HW166157   7.135   3.017  10.954  0.4834 -0.0091  0.2463
21572SOL    HW266158   7.061   3.149  10.950 -0.7315 -0.6812 -3.8328
21573SOL     OW66159   6.018   6.816  11.312 -1.0492  0.3828 -0.1638
21573SOL    HW166160   6.046   6.738  11.359 -0.0603 -0.0592 -1.4274
21573SOL    HW266161   5.929   6.832  11.343 -1.0762 -0.9345  0.5100
21574SOL     OW66162   3.969   6.610   9.538  0.5381 -0.1634 -0.0123
21574SOL    HW166163   3.907   6.541   9.516  1.8687 -1.4159  0.0152
21574SOL    HW266164   3.978   6.661   9.457 -0.3797 -0.0663 -0.0603
21575SOL     OW66165   5.051   2.421  10.568  0.1842 -0.3300  0.2385
21575SOL    HW166166   5.010   2.351  10.620 -0.6088  0.7598  1.1217
21575SOL    HW266167   5.038   2.395  10.477 -1.2174 -0.7184  0.5317
21576SOL     OW66168   6.565   5.440   9.319  0.1589  0.3742 -0.0173
21576SOL    HW166169   6.605   5.506   9.263 -0.1182  0.7276  0.1960
21576SOL    HW266170   6.625   5.433   9.394  0.5630 -0.1465 -0.3787
21577SOL     OW66171   6.512   4.384  11.816 -0.3991  0.1881 -0.5426
21577SOL    HW166172   6.522   4.292  11.791 -0.3990  0.0823 -0.1578
21577SOL    HW266173   6.531   4.385  11.910 -0.4413  0.5746 -0.5396
21578SOL     OW66174   7.317   4.058   9.110 -0.1846 -0.1934  0.0625
21578SOL    HW166175   7.348   4.079   9.022 -0.8313  0.7071  0.0421
21578SOL    HW266176   7.379   4.102   9.168  0.2150 -0.7487  0.0626
21579SOL     OW66177   5.674   6.542   9.484 -0.2838  0.3076  0.1272
21579SOL    HW166178   5.676   6.609   9.416  0.0184  1.3341  1.1167
21579SOL    HW266179   5.762   6.504   9.484 -0.4151 -0.0136 -0.3367
21580SOL     OW66180   4.645   5.519  10.518 -0.0032  0.1879 -0.9451
21580SOL    HW166181   4.648   5.471  10.600  2.0547  0.6842 -0.6838
21580SOL    HW266182   4.716   5.583  10.524 -1.7584  2.3856 -1.8398
21581SOL     OW66183   5.670   3.760  10.488 -0.1925  0.1723  0.0607
21581SOL    HW166184   5.654   3.843  10.443 -1.3465 -0.0603  0.0115
21581SOL    HW266185   5.680   3.785  10.580  2.3152  0.6650 -0.2585
21582SOL     OW66186   6.708   4.354  10.577 -0.6948  0.1479 -0.3652
21582SOL    HW166187   6.725   4.330  10.668  2.9903 -0.5489 -1.0848
21582SOL    HW266188   6.718   4.449  10.575  0.6843  0.0124 -0.2781
21583SOL     OW66189   6.040   5.925   9.308  0.1529 -0.1146 -0.0031
21583SOL    HW166190   6.127   5.951   9.340 -1.0531  2.2446  1.6746
21583SOL    HW266191   5.980   5.957   9.375 -2.2445  0.9801 -2.4710
21584SOL     OW66192   5.916   5.433  10.672  0.7485  0.7475  0.6262
21584SOL    HW166193   5.927   5.343  10.642  1.0318  0.6132  1.1134
21584SOL    HW266194   5.847   5.469  10.617  0.9791  0.3879  0.0908
21585SOL     OW66195   5.816   3.167   9.719  0.4649 -0.1896 -0.5024
21585SOL    HW166196   5.747   3.198   9.777  1.7421 -0.7651  1.4188
21585SOL    HW266197   5.775   3.164   9.633 -1.9273 -0.6026  0.5718
21586SOL     OW66198   5.910   3.672  11.073  0.0957 -0.1061 -0.4814
21586SOL    HW166199   5.985   3.731  11.079 -0.5626  0.7012  0.0613
21586SOL    HW266200   5.836   3.724  11.105 -0.7573 -0.7750 -1.2921
21587SOL     OW66201   5.793   5.111  11.662  0.5672 -0.5453  0.0659
21587SOL    HW166202   5.760   5.093  11.751  0.5083  0.2096  0.2045
21587SOL    HW266203   5.717   5.144  11.615  0.7568 -0.3083 -0.0741
21588SOL     OW66204   4.996   4.452  11.195 -0.0049  0.4131 -0.3019
21588SOL    HW166205   5.079   4.487  11.226 -0.0518  0.4219 -0.1853
21588SOL    HW266206   5.015   4.361  11.174 -0.2327  0.0858  0.8218
21589SOL     OW66207   7.106   5.142  10.789 -0.0307  0.3322  0.1476
21589SOL    HW166208   7.023   5.189  10.783 -0.9010 -0.7028  2.7054
21589SOL    HW266209   7.164   5.202  10.836 -0.7328 -0.5008  2.2098
21590SOL     OW66210   4.683   2.863   8.767  0.0610  0.2799  0.0931
21590SOL    HW166211   4.706   2.938   8.713  0.9788 -0.5435 -0.6988
21590SOL    HW266212   4.667   2.792   8.705  0.6323 -0.5503  0.8580
21591SOL     OW66213   0.515   4.095  10.716 -0.2438 -0.3092 -0.7247
21591SOL    HW166214   0.564   4.115  10.636 -0.5377  0.1434 -0.7945
21591SOL    HW266215   0.535   4.168  10.775  0.2826 -0.8419 -0.2422
21592SOL     OW66216   5.490   4.541  11.574  0.1959  0.2552 -0.5933
21592SOL    HW166217   5.458   4.603  11.640  1.1791  0.2206 -0.0523
21592SOL    HW266218   5.542   4.478  11.625  0.4394 -0.1470 -1.3299
21593SOL     OW66219   6.521   4.509  12.326  0.0356 -0.2509  0.0641
21593SOL    HW166220   6.428   4.492  12.340 -0.2092 -0.2976 -1.4876
21593SOL    HW266221   6.549   4.554  12.406 -1.5918  0.8835  0.0470
21594SOL     OW66222   6.999   5.505  10.753 -0.1009  0.4493 -0.5647
21594SOL    HW166223   7.081   5.486  10.799  1.0114  1.1183 -2.1768
21594SOL    HW266224   6.940   5.434  10.780  1.1072 -0.2449  0.3748
21595SOL     OW66225   6.179   5.518  10.595 -0.5093 -0.2382 -0.2926
21595SOL    HW166226   6.138   5.574  10.529 -1.2539  0.8983  1.0768
21595SOL    HW266227   6.112   5.454  10.617 -0.9264  0.4940  0.6293
21596SOL     OW66228   6.236   6.077   8.868 -0.4329 -0.0177  0.0891
21596SOL    HW166229   6.180   6.037   8.935  2.6662 -1.0431  2.2936
21596SOL    HW266230   6.306   6.013   8.854  1.8623  2.3872 -0.1904
21597SOL     OW66231   7.034   3.491   9.589 -0.2669  0.4484 -0.2293
21597SOL    HW166232   6.976   3.557   9.552  1.8131  1.7387 -1.3947
21597SOL    HW266233   7.080   3.455   9.513 -0.3197 -1.3529  0.5403
21598SOL     OW66234   6.969   7.290   9.030 -0.2167 -0.3666 -0.0571
21598SOL    HW166235   7.033   7.358   9.011  1.5785 -1.0058  2.8978
21598SOL    HW266236   6.897   7.336   9.074 -0.1328 -0.0934 -0.2049
21599SOL     OW66237   5.699   4.589  10.189 -0.2968  0.2159  0.2230
21599SOL    HW166238   5.614   4.609  10.149  0.1622  0.7627 -0.4964
21599SOL    HW266239   5.696   4.633  10.274 -1.3227 -1.0499  0.8759
21600SOL     OW66240   5.592   4.380  11.159  0.0770 -1.1181 -0.4305
21600SOL    HW166241   5.643   4.446  11.206  2.3471 -1.6843 -1.9249
21600SOL    HW266242   5.568   4.422  11.077 -2.0304 -0.8494  0.2670
21601SOL     OW66243   6.721   5.009  11.042 -0.1578  0.6608 -0.1429
21601SOL    HW166244   6.626   5.012  11.033 -0.1354  2.5511 -0.1303
21601SOL    HW266245   6.754   5.011  10.952 -0.1290  1.2742 -0.1236
21602SOL     OW66246   7.735   2.872   9.845 -0.3009 -0.2606  0.0128
21602SOL    HW166247   7.667   2.938   9.857 -1.5304 -1.2007 -1.4452
21602SOL    HW266248   7.817   2.921   9.851 -1.0022  0.7358  2.7781
21603SOL     OW66249   4.960   5.447   9.411  0.1997  0.0388  0.0726
21603SOL    HW166250   4.907   5.470   9.488 -0.2176  1.3288 -0.5627
21603SOL    HW266251   4.982   5.532   9.372  1.7512 -0.5393 -0.3423
21604SOL     OW66252   5.925   5.534   9.889 -0.4586  0.0106  0.1109
21604SOL    HW166253   5.989   5.531   9.961 -1.5981  0.8588  1.2164
21604SOL    HW266254   5.878   5.617   9.903 -1.2534 -0.2038 -1.1438
21605SOL     OW66255   5.821   4.704   9.077 -0.5311 -0.0010  0.1106
21605SOL    HW166256   5.794   4.642   9.145 -1.1113 -0.5638 -0.6297
21605SOL    HW266257   5.856   4.649   9.007  0.9618  0.6261  0.3291
21606SOL     OW66258   6.111   4.363  10.880  0.0825  0.4340 -0.0658
21606SOL    HW166259   6.137   4.455  10.880  0.8514  0.2256  0.6546
21606SOL    HW266260   6.157   4.326  10.805 -2.2430  1.1440 -1.9825
21607SOL     OW66261   4.905   4.997   7.826  0.4923  0.5531  0.0897
21607SOL    HW166262   4.817   5.000   7.788  1.0197 -0.1306 -1.2427
21607SOL    HW266263   4.950   5.073   7.789  0.2734  1.3239  1.3378
21608SOL     OW66264   6.095   2.688  11.180  0.2383  0.1883 -0.0696
21608SOL    HW166265   6.048   2.691  11.097  0.1212  0.1153 -0.0065
21608SOL    HW266266   6.033   2.722  11.244 -0.2433 -1.2102  0.2478
21609SOL     OW66267   7.397   5.119  10.658 -0.3140 -0.1717  0.3678
21609SOL    HW166268   7.446   5.068  10.593 -0.9109  0.5999 -0.7180
21609SOL    HW266269   7.307   5.120  10.626 -0.7172 -0.1579  1.4571
21610SOL     OW66270   5.388   5.828  10.818  0.2559  0.1797  0.4904
21610SOL    HW166271   5.460   5.770  10.794 -0.8729 -0.9461 -0.3317
21610SOL    HW266272   5.337   5.778  10.882 -0.0866  0.7511  0.6732
21611SOL     OW66273   6.682   4.160   9.208  0.2691  0.1141 -0.2606
21611SOL    HW166274   6.601   4.135   9.162 -0.4236  1.6550  0.0373
21611SOL    HW266275   6.752   4.138   9.147 -0.4302 -0.5662 -0.8378
21612SOL     OW66276   6.376   3.154  10.286 -0.4964 -0.2008  0.2391
21612SOL    HW166277   6.350   3.219  10.220 -0.4016 -0.6814 -0.2711
21612SOL    HW266278   6.330   3.182  10.366 -0.7564  0.2760 -0.0733
21613SOL     OW66279   4.284   4.393  10.764 -0.2817 -0.4048  0.0649
21613SOL    HW166280   4.376   4.407  10.738 -0.1072 -0.4003  0.6657
21613SOL    HW266281   4.250   4.481  10.777  0.2018 -0.4341  1.7531
21614SOL     OW66282   6.081   7.651  10.472 -0.0926  0.1246 -0.2160
21614SOL    HW166283   6.013   7.684  10.413  2.0803 -0.2706 -3.2068
21614SOL    HW266284   6.054   7.562  10.493 -0.7688  0.1567 -0.9091
21615SOL     OW66285   4.638   6.150   6.764 -0.3238  0.5170 -0.7383
21615SOL    HW166286   4.660   6.058   6.751  0.0156  0.3700  0.6492
21615SOL    HW266287   4.707   6.198   6.717 -0.5449  0.0708 -1.5269
21616SOL     OW66288   5.455   5.318  11.805 -0.1276 -0.6431 -0.1930
21616SOL    HW166289   5.481   5.377  11.876  0.1567  0.0824 -0.8897
21616SOL    HW266290   5.384   5.364  11.760 -0.7308 -1.3727 -0.0106
21617SOL     OW66291   5.699   4.247  11.390  0.0673  0.5241 -0.6060
21617SOL    HW166292   5.794   4.256  11.388  0.1528  0.0911  0.8806
21617SOL    HW266293   5.672   4.270  11.301  1.5820  0.3384 -1.1492
21618SOL     OW66294   5.430   5.438   8.951 -0.2542  0.3216  0.3510
21618SOL    HW166295   5.370   5.480   8.889  0.1365 -0.8447 -0.8738
21618SOL    HW266296   5.513   5.435   8.905  0.5982  1.2318  1.7415
21619SOL     OW66297   6.877   4.471   9.147 -0.0436 -0.6722 -0.8009
21619SOL    HW166298   6.954   4.416   9.133  1.9738  2.4671 -3.3651
21619SOL    HW266299   6.824   4.459   9.069  0.9232  1.5753 -1.8888
21620SOL     OW66300   5.998   4.139  10.553  0.3655  0.2537  0.4324
21620SOL    HW166301   5.933   4.208  10.565 -0.7309 -0.4214 -1.2897
21620SOL    HW266302   6.069   4.162  10.613  0.7993  3.8182 -1.2099
21621SOL     OW66303   5.933   5.402  11.496  0.0552 -0.5338 -0.1953
21621SOL    HW166304   5.846   5.429  11.468 -1.0714 -3.5039  0.1225
21621SOL    HW266305   5.956   5.330  11.437  2.1379 -0.1141  0.0253
21622SOL     OW66306   6.444   6.750   9.172  0.2523  0.1347 -0.2281
21622SOL    HW166307   6.523   6.796   9.143  0.2765  0.3060  0.0924
21622SOL    HW266308   6.467   6.657   9.167 -0.1302  0.1062 -1.8189
21623SOL     OW66309   7.666   4.656  10.280 -0.4950 -0.0440 -0.1330
21623SOL    HW166310   7.701   4.741  10.254 -0.3945  0.2182  0.8225
21623SOL    HW266311   7.685   4.650  10.374 -0.3900 -1.1742 -0.2175
21624SOL     OW66312   5.473   5.825   9.635  0.5133 -0.0369  0.1698
21624SOL    HW166313   5.526   5.776   9.572 -0.1726 -2.9037  1.6539
21624SOL    HW266314   5.393   5.846   9.587  0.9494 -0.0894 -0.5995
21625SOL     OW66315   6.094   5.104  11.011  0.5715  0.4665 -0.0574
21625SOL    HW166316   6.143   5.041  10.957  0.0363 -0.2770  0.3038
21625SOL    HW266317   6.008   5.110  10.968  0.1560 -0.0965  0.6638
21626SOL     OW66318   7.448   4.331  10.121 -0.0200 -0.1071 -0.2325
21626SOL    HW166319   7.394   4.306  10.196  0.0004 -0.0402 -0.1952
21626SOL    HW266320   7.440   4.259  10.059 -1.2044  0.4812 -0.7897
21627SOL     OW66321   4.812   5.136  11.036  0.2830  0.1803 -0.4486
21627SOL    HW166322   4.790   5.054  11.080  1.7612  0.1927  0.3745
21627SOL    HW266323   4.791   5.120  10.944  0.8109 -1.2320 -0.3410
21628SOL     OW66324   5.360   5.529  10.473  0.1980  0.5207  0.1284
21628SOL    HW166325   5.453   5.507  10.480 -0.3523 -2.3689 -0.4740
21628SOL    HW266326   5.358   5.605  10.415  2.1402 -0.0110 -0.7191
21629SOL     OW66327   7.565   4.966  10.519 -0.3485 -0.9083  0.4363
21629SOL    HW166328   7.633   4.903  10.544 -0.8126 -1.4678  0.2924
21629SOL    HW266329   7.543   4.942  10.429 -0.8184 -0.7914  0.5213
21630SOL     OW66330   4.720   3.469  10.111  0.6099 -0.2867 -0.3868
21630SOL    HW166331   4.756   3.405  10.050 -0.6854  0.2138 -1.7452
21630SOL    HW266332   4.652   3.421  10.159  0.6340 -0.3037 -0.3702
21631SOL     OW66333   4.289   3.836  10.820 -0.2874  0.2284  0.4399
21631SOL    HW166334   4.274   3.913  10.765 -0.9383 -0.1547  0.0768
21631SOL    HW266335   4.352   3.866  10.886  1.2076  0.4496 -1.0352
21632SOL     OW66336   0.076   4.818  10.701 -0.6410 -0.3374  0.1404
21632SOL    HW166337   0.104   4.748  10.642 -4.0517 -0.1236 -2.0250
21632SOL    HW266338   0.050   4.773  10.781  2.7532 -0.7876  1.1131
21633SOL     OW66339   6.190   4.251   0.372  0.4283  0.8997 -0.1661
21633SOL    HW166340   6.170   4.270   0.464  1.4507 -1.1986  0.5487
21633SOL    HW266341   6.284   4.263   0.364  0.7603 -1.3346 -0.2476
21634SOL     OW66342   5.810   4.065   9.469  0.0814 -0.2641  0.0183
21634SOL    HW166343   5.824   3.971   9.482  1.6471  0.1740  2.0753
21634SOL    HW266344   5.898   4.101   9.455 -0.4365  0.9543 -0.2352
21635SOL     OW66345   5.671   4.258  10.860  0.7110  0.1322  0.1467
21635SOL    HW166346   5.672   4.347  10.893  2.9434  0.7796 -1.4235
21635SOL    HW266347   5.665   4.203  10.938  2.1511  1.6138  1.3760
21636SOL     OW66348   6.042   6.263  11.553 -0.2652  0.0485 -0.0387
21636SOL    HW166349   5.956   6.224  11.565 -0.5973 -0.2389 -2.6677
21636SOL    HW266350   6.096   6.192  11.517  0.6433  0.6190  0.1541
21637SOL     OW66351   7.052   3.510   8.849 -0.4116  0.4211  0.2121
21637SOL    HW166352   7.063   3.489   8.941 -0.8304 -0.5077  0.0659
21637SOL    HW266353   6.974   3.567   8.847  0.7351  2.0894  0.6096
21638SOL     OW66354   5.245   4.673   8.949  0.1956  0.0324  0.4352
21638SOL    HW166355   5.334   4.707   8.936  0.0435 -0.0195 -0.9004
21638SOL    HW266356   5.255   4.578   8.938 -0.1172  0.0828 -0.3449
21639SOL     OW66357   5.740   3.193   9.465 -0.0345  0.4276 -0.6603
21639SOL    HW166358   5.676   3.253   9.426 -1.0542 -0.9719 -1.2264
21639SOL    HW266359   5.798   3.168   9.393 -0.3778 -0.1990 -0.7331
21640SOL     OW66360   7.584   3.787   8.836 -0.2345 -0.5009  0.4478
21640SOL    HW166361   7.628   3.783   8.751 -0.7924  0.4545  0.1113
21640SOL    HW266362   7.528   3.864   8.831 -0.4058 -0.5345  1.6217
21641SOL     OW66363   0.893   2.663   9.247 -0.1538  0.4201  0.2323
21641SOL    HW166364   0.908   2.597   9.315 -0.6685 -0.1908 -0.2365
21641SOL    HW266365   0.824   2.626   9.192 -1.4971  1.9879  0.7819
21642SOL     OW66366   5.640   4.069   8.706  0.2538 -0.5548 -0.1167
21642SOL    HW166367   5.653   4.140   8.643  2.4901 -0.0822  0.7887
21642SOL    HW266368   5.547   4.073   8.728  0.1894  1.7061 -0.5555
21643SOL     OW66369   4.902   4.631  12.004  0.4093  0.1063 -0.7497
21643SOL    HW166370   4.889   4.605  12.095 -0.4236 -0.8713 -1.1358
21643SOL    HW266371   4.846   4.709  11.993 -0.0514 -0.2044 -0.6197
21644SOL     OW66372   3.471   3.448  10.596  0.5173 -0.4513 -0.3275
21644SOL    HW166373   3.386   3.455  10.552  0.9222  0.1895 -1.0144
21644SOL    HW266374   3.461   3.500  10.676 -1.1315 -3.7651  1.8746
21645SOL     OW66375   4.825   3.384   9.586 -0.1837  0.6356  0.2754
21645SOL    HW166376   4.761   3.433   9.638 -0.4475  0.4754  0.1050
21645SOL    HW266377   4.798   3.398   9.495  0.0530  0.6097  0.2012
21646SOL     OW66378   7.521   6.227  11.818 -0.5412 -0.2909 -0.5557
21646SOL    HW166379   7.430   6.202  11.805 -0.4806 -0.0781 -1.4751
21646SOL    HW266380   7.535   6.301  11.759 -0.7608  2.1468  2.2305
21647SOL     OW66381   5.083   3.263  10.213 -0.1259  0.0928  0.0527
21647SOL    HW166382   5.158   3.247  10.156 -0.2817 -0.9836  0.1427
21647SOL    HW266383   5.061   3.355  10.197  1.4357  0.5516  0.3015
21648SOL     OW66384   6.364   3.471  10.205  0.1455 -0.3349  0.3577
21648SOL    HW166385   6.348   3.399  10.144  6.1424 -0.1463 -2.2010
21648SOL    HW266386   6.338   3.550  10.157  0.1709 -0.4742  0.1141
21649SOL     OW66387   5.892   5.674  11.916  0.5021  0.1417  0.3969
21649SOL    HW166388   5.913   5.766  11.933  2.0389 -0.3927  1.5996
21649SOL    HW266389   5.914   5.661  11.824  0.3526  0.9553  0.2405
21650SOL     OW66390   6.421   6.370   9.840  0.4269  0.1132  0.2602
21650SOL    HW166391   6.385   6.443   9.890  1.7398  0.4863  0.7067
21650SOL    HW266392   6.352   6.304   9.840 -0.8387  1.3898 -0.2601
21651SOL     OW66393   4.815   5.264  11.316 -0.6712 -0.4183  0.8240
21651SOL    HW166394   4.805   5.223  11.230  1.3967 -0.6453  0.6419
21651SOL    HW266395   4.726   5.267  11.351 -1.4162 -1.3677 -0.8367
21652SOL     OW66396   5.297   5.442  10.048  0.2715  0.0504  0.0780
21652SOL    HW166397   5.290   5.387  10.126 -0.4295 -0.2616 -0.1920
21652SOL    HW266398   5.208   5.477  10.036 -0.2422 -1.7257 -1.8887
21653SOL     OW66399   6.735   4.049  10.188  0.2585  0.3005 -0.3212
21653SOL    HW166400   6.787   3.989  10.134 -0.7904 -0.2831 -0.7146
21653SOL    HW266401   6.645   4.034  10.160 -0.5042 -0.9428  2.4661
21654SOL     OW66402   0.357   3.702  10.209 -0.2043  0.0058 -0.2795
21654SOL    HW166403   0.435   3.668  10.166  0.2793 -0.7728  1.1324
21654SOL    HW266404   0.386   3.726  10.297 -1.9277 -2.2187  1.0020
21655SOL     OW66405   5.085   5.347  10.269 -0.2196  0.0532  0.2894
21655SOL    HW166406   5.174   5.313  10.277  0.4279  1.4115 -0.8135
21655SOL    HW266407   5.062   5.375  10.358 -0.5118 -2.4604  1.1038
21656SOL     OW66408   6.480   3.308   9.423  0.0650 -0.1025 -0.3024
21656SOL    HW166409   6.425   3.282   9.496  1.3158  0.5894  0.9293
21656SOL    HW266410   6.473   3.236   9.360 -1.6310 -0.3565  0.1291
21657SOL     OW66411   7.457   4.464  11.196  0.2011  0.1325  0.0839
21657SOL    HW166412   7.520   4.493  11.130  1.4924 -1.7751  0.4143
21657SOL    HW266413   7.507   4.463  11.278 -0.9041  0.7732  0.7941
21658SOL     OW66414   7.397   6.019   9.641  0.6654 -0.2447 -0.1629
21658SOL    HW166415   7.487   5.993   9.660  0.3703 -1.7913 -0.7932
21658SOL    HW266416   7.404   6.112   9.619  1.9029 -0.0070  1.0751
21659SOL     OW66417   6.321   7.514   9.162  0.4110  0.1099  0.1690
21659SOL    HW166418   6.295   7.604   9.179 -2.3544 -0.7536  1.1148
21659SOL    HW266419   6.339   7.477   9.248  1.6554 -0.2372 -0.2193
21660SOL     OW66420   5.543   6.379  11.661  0.1831  0.1371  0.4092
21660SOL    HW166421   5.536   6.327  11.581  0.2001 -0.1509  0.5929
21660SOL    HW266422   5.627   6.353  11.699  0.2472  0.3880  0.4413
21661SOL     OW66423   6.863   5.335  10.339  0.2738  0.4047 -0.3244
21661SOL    HW166424   6.805   5.320  10.414  0.2198  0.8404 -0.2790
21661SOL    HW266425   6.840   5.264  10.278  1.2023 -0.7198  0.5810
21662SOL     OW66426   7.257   5.410  10.212 -0.8896  0.5782  0.2442
21662SOL    HW166427   7.207   5.345  10.262 -1.1374  0.3447 -0.2932
21662SOL    HW266428   7.191   5.471  10.181 -0.7408  0.7060  0.1818
21663SOL     OW66429   6.480   5.108  10.265  0.1331 -0.1981 -0.0427
21663SOL    HW166430   6.417   5.053  10.311 -1.0913  0.2820 -1.0917
21663SOL    HW266431   6.480   5.076  10.175 -1.1709  1.9171 -0.8723
21664SOL     OW66432   4.102   5.836   8.726  0.2273 -0.7516 -0.1044
21664SOL    HW166433   4.022   5.796   8.759  0.9253  0.0694  2.8241
21664SOL    HW266434   4.165   5.763   8.722  0.2768 -0.7880  0.9851
21665SOL     OW66435   4.792   6.427  11.714 -0.4864  0.0728  0.4289
21665SOL    HW166436   4.755   6.375  11.786 -1.3071 -0.4805 -0.3635
21665SOL    HW266437   4.877   6.388  11.696 -1.0410 -0.9355 -0.0696
21666SOL     OW66438   6.173   3.655  10.822 -0.1673  0.5345 -0.6203
21666SOL    HW166439   6.198   3.724  10.761 -0.7931  0.7449 -0.6488
21666SOL    HW266440   6.080   3.638  10.802 -0.0966 -0.1212 -0.4298
21667SOL     OW66441   0.688   3.514   9.361  0.1334  0.6971  0.3280
21667SOL    HW166442   0.606   3.558   9.384  1.0069  2.3079  0.5685
21667SOL    HW266443   0.701   3.535   9.268 -0.9313 -1.6744 -0.4343
21668SOL     OW66444   6.664   5.338   9.811  0.1043 -0.1653  0.4610
21668SOL    HW166445   6.669   5.427   9.776  1.8577 -0.5581 -0.3703
21668SOL    HW266446   6.693   5.347   9.902 -0.3289  0.2025  0.5661
21669SOL     OW66447   5.556   6.384  12.072 -0.4120 -0.3902 -0.6418
21669SOL    HW166448   5.632   6.371  12.016 -0.2885 -0.2712 -0.5007
21669SOL    HW266449   5.506   6.453  12.028  0.6679  1.1097  0.4032
21670SOL     OW66450   5.957   4.044  10.291  0.1020 -0.4106 -0.3270
21670SOL    HW166451   5.865   4.018  10.281 -1.1084  2.8578  0.9155
21670SOL    HW266452   5.965   4.065  10.384  1.4425  1.4604 -0.8161
21671SOL     OW66453   7.696   4.374  11.572  0.0917  0.5686  0.8948
21671SOL    HW166454   7.786   4.387  11.541 -0.3656  1.3038 -0.1766
21671SOL    HW266455   7.667   4.294  11.529  0.1045  0.5343  0.9498
21672SOL     OW66456   0.911   3.352  10.024  0.2304  0.4472  0.1724
21672SOL    HW166457   0.862   3.414  10.079  0.0615 -0.6472  1.3188
21672SOL    HW266458   0.879   3.368   9.935  0.4598  2.2306  0.3793
21673SOL     OW66459   5.352   5.231   9.897  0.6041  0.1142 -0.4273
21673SOL    HW166460   5.323   5.300   9.957 -0.0874 -0.8438  0.3809
21673SOL    HW266461   5.315   5.150   9.934 -0.2439 -0.4666 -2.3991
21674SOL     OW66462   5.417   3.672   9.707  0.0937  0.2692 -0.0033
21674SOL    HW166463   5.345   3.711   9.757  0.5271 -1.3978  2.0548
21674SOL    HW266464   5.409   3.710   9.620 -1.3146  2.5683  1.0348
21675SOL     OW66465   5.491   2.597  10.692  0.1725 -0.1153  0.5489
21675SOL    HW166466   5.507   2.593  10.787 -0.0045 -0.9605  0.5483
21675SOL    HW266467   5.501   2.690  10.671  1.3116 -0.0685  1.1956
21676SOL     OW66468   6.298   5.131  10.550 -0.3371  0.3202  0.3785
21676SOL    HW166469   6.273   5.083  10.629 -0.1056  0.6070  0.6339
21676SOL    HW266470   6.330   5.065  10.490  0.6985  0.2335  1.0097
21677SOL     OW66471   0.036   3.449   9.740  0.6383  0.0842  0.0121
21677SOL    HW166472   0.062   3.531   9.781  1.9678  0.2458 -1.1109
21677SOL    HW266473   0.110   3.390   9.753 -0.1996 -0.8885  0.5888
21678SOL     OW66474   6.496   4.512   9.695 -0.0303  0.3382 -0.6896
21678SOL    HW166475   6.447   4.436   9.662  0.3431 -0.4572  0.5262
21678SOL    HW266476   6.435   4.556   9.754  0.7190 -0.8028  1.0376
21679SOL     OW66477   5.235   6.069  11.040 -0.0162 -0.0742 -0.6574
21679SOL    HW166478   5.178   6.004  11.000 -3.0507  1.0869  1.4349
21679SOL    HW266479   5.208   6.071  11.132  1.9119  2.1484 -0.0449
21680SOL     OW66480   5.123   6.532  11.289  0.1673  0.8005 -0.7211
21680SOL    HW166481   5.031   6.556  11.300  0.4781  2.3065 -1.1173
21680SOL    HW266482   5.127   6.498  11.200  0.0493  1.0423 -0.8211
21681SOL     OW66483   5.321   3.147   0.535  0.0116 -0.7654  0.1496
21681SOL    HW166484   5.298   3.240   0.528  0.5069 -0.7586 -1.9305
21681SOL    HW266485   5.415   3.145   0.514  0.1107 -1.6851  0.6599
21682SOL     OW66486   4.760   3.580   0.582 -0.0554  0.4897 -0.4895
21682SOL    HW166487   4.796   3.528   0.511  0.9154 -2.1459  1.7237
21682SOL    HW266488   4.834   3.633   0.612 -0.1820  0.8345 -0.7797
21683SOL     OW66489   6.826   4.626  11.518 -0.6449 -0.0075  0.3906
21683SOL    HW166490   6.918   4.598  11.515 -0.8584 -0.6502 -0.7046
21683SOL    HW266491   6.824   4.705  11.463 -0.6472  0.3351  0.8782
21684SOL     OW66492   7.239   5.636   0.379  0.1653 -0.3870 -0.0534
21684SOL    HW166493   7.309   5.581   0.343 -0.6979 -0.2128 -2.1820
21684SOL    HW266494   7.183   5.576   0.427 -0.4535 -1.3180 -1.8600
21685SOL     OW66495   7.956   3.349   1.299 -0.2695  0.3570  0.4160
21685SOL    HW166496   8.044   3.324   1.328 -0.8364 -0.0665  1.8496
21685SOL    HW266497   7.971   3.398   1.218  1.0556 -3.0449 -1.6317
21686SOL     OW66498   7.613   3.936  11.146  0.0130  0.1544 -0.0666
21686SOL    HW166499   7.560   4.014  11.134 -0.3553  0.1342  1.2412
21686SOL    HW266500   7.703   3.969  11.154 -0.0366  0.3669 -0.3983
21687SOL     OW66501   5.524   4.843  12.005  0.2431  0.5092  0.4316
21687SOL    HW166502   5.608   4.801  12.027  1.0850  2.0904  0.3926
21687SOL    HW266503   5.482   4.858  12.090 -0.2330 -0.7068  0.4255
21688SOL     OW66504   0.072   4.736  12.031  0.5650  0.2819 -0.1711
21688SOL    HW166505   0.001   4.688  12.074  0.0101  2.4482  1.4936
21688SOL    HW266506   0.093   4.683  11.954 -2.1457 -0.9557 -0.1760
21689SOL     OW66507   6.369   3.952   0.389 -0.6484  0.1418  0.6110
21689SOL    HW166508   6.383   3.989   0.302 -0.6842 -0.9972  0.0982
21689SOL    HW266509   6.327   3.867   0.373  0.4967 -0.6686  1.6572
21690SOL     OW66510   7.384   3.322  10.841 -0.2149  0.2797  0.1598
21690SOL    HW166511   7.408   3.372  10.919 -0.2466  1.5588 -0.6274
21690SOL    HW266512   7.319   3.259  10.873  1.4827 -0.8464  1.6126
21691SOL     OW66513   5.224   6.832  12.037 -0.3404  0.0209  0.7051
21691SOL    HW166514   5.167   6.908  12.044  1.6084  1.7813 -1.1801
21691SOL    HW266515   5.186   6.781  11.965 -0.4865  0.3263  0.5611
21692SOL     OW66516   5.729   7.253   8.099  0.4133 -0.0847 -0.1476
21692SOL    HW166517   5.709   7.319   8.165 -1.1681 -1.2426  0.6144
21692SOL    HW266518   5.820   7.228   8.117  0.8643  1.4821 -0.1275
21693SOL     OW66519   5.605   4.008   1.058  0.3803 -0.6890  0.7656
21693SOL    HW166520   5.540   4.023   1.127 -0.9721 -2.3528 -0.0715
21693SOL    HW266521   5.559   4.031   0.977  1.4658 -0.1464  0.2923
21694SOL     OW66522   5.984   3.635  11.389 -0.1027  0.4390 -0.0923
21694SOL    HW166523   5.978   3.679  11.304  2.0525  0.8266 -0.0993
21694SOL    HW266524   6.036   3.695  11.443  2.0254 -1.5461  0.2295
21695SOL     OW66525   5.054   3.859  11.431  0.2792 -0.4054  0.1248
21695SOL    HW166526   5.132   3.907  11.404 -0.3261  1.1685  1.0450
21695SOL    HW266527   5.056   3.779  11.379  1.7001  0.2919 -0.9574
21696SOL     OW66528   7.447   4.827   0.451 -0.1388 -0.6802 -0.4251
21696SOL    HW166529   7.355   4.809   0.436  0.2651 -1.7650 -1.8204
21696SOL    HW266530   7.493   4.764   0.395  1.4448 -0.3190  0.4109
21697SOL     OW66531   6.939   4.512  10.892  0.2015 -0.0934  0.0126
21697SOL    HW166532   6.987   4.535  10.972 -0.9770  1.0334  0.4307
21697SOL    HW266533   6.972   4.426  10.868  2.9926  0.9327 -0.1757
21698SOL     OW66534   7.673   4.354  10.808 -0.3070  0.3553  0.1392
21698SOL    HW166535   7.660   4.264  10.778 -0.0315 -0.4966  2.4076
21698SOL    HW266536   7.732   4.392  10.743 -0.3582 -1.1126 -0.8227
21699SOL     OW66537   5.895   4.613   9.990 -0.4453  0.5319 -0.0907
21699SOL    HW166538   5.838   4.628  10.065  0.0776  0.5633  0.3072
21699SOL    HW266539   5.937   4.528  10.008 -1.5265 -0.2486 -1.1289
21700SOL     OW66540   7.092   4.275   1.607 -0.1373  0.2152 -0.0916
21700SOL    HW166541   7.056   4.346   1.554 -0.8917 -0.9558 -1.2061
21700SOL    HW266542   7.172   4.250   1.562  0.0305  0.2250  0.1970
21701SOL     OW66543   4.833   6.294  11.147 -0.3897  0.2780 -0.0562
21701SOL    HW166544   4.905   6.275  11.207  0.4209 -0.2174 -1.1618
21701SOL    HW266545   4.791   6.210  11.132 -1.2025  0.5599  0.5571
21702SOL     OW66546   6.318   3.179  10.609  0.6283 -0.0848 -0.2690
21702SOL    HW166547   6.386   3.246  10.614 -0.1151  0.6255  0.7746
21702SOL    HW266548   6.360   3.099  10.643  1.1278  0.1903 -0.2324
21703SOL     OW66549   4.636   4.307   0.951  0.3691 -0.2588  0.1168
21703SOL    HW166550   4.615   4.381   1.008 -0.5094 -1.1128  0.9413
21703SOL    HW266551   4.720   4.274   0.984  1.5765  1.2554 -1.2232
21704SOL     OW66552   0.084   4.752   0.227 -0.5742  0.0910 -0.5795
21704SOL    HW166553   0.136   4.756   0.147 -0.9233  1.8261 -0.7612
21704SOL    HW266554   0.013   4.815   0.213 -2.0646 -1.3424  0.1289
21705SOL     OW66555   8.000   4.929  11.362 -0.0445  0.2242  0.5708
21705SOL    HW166556   8.016   4.933  11.457 -1.7091  1.1196  0.8480
21705SOL    HW266557   7.923   4.872  11.353  1.0429 -1.1693 -0.4147
21706SOL     OW66558   0.092   4.430   0.279  0.1735  0.5968  0.0318
21706SOL    HW166559   0.098   4.524   0.293  0.1326  0.6135 -0.0596
21706SOL    HW266560   0.161   4.411   0.216  0.3170  0.5331  0.2076
21707SOL     OW66561   0.011   3.961  10.625  0.4309  0.2081 -0.8327
21707SOL    HW166562  -0.049   3.887  10.624  0.7889 -0.1247  0.4124
21707SOL    HW266563  -0.009   4.010  10.545 -1.5467  0.1738 -0.3881
21708SOL     OW66564   6.326   5.303  12.251 -0.2926  0.0858  0.1200
21708SOL    HW166565   6.345   5.210  12.234  0.4465  0.3265 -0.4206
21708SOL    HW266566   6.392   5.350  12.200 -0.0371  0.8993  1.1751
21709SOL     OW66567   0.067   4.499  12.315 -0.2922 -0.4442  0.3797
21709SOL    HW166568  -0.006   4.513  12.255  0.3355 -0.0608 -0.3032
21709SOL    HW266569   0.036   4.430  12.374 -0.6354 -1.4076 -0.8738
21710SOL     OW66570   7.110   1.576  11.114  0.1882 -0.1587 -0.5965
21710SOL    HW166571   7.199   1.585  11.081  0.1264 -1.2091 -1.1043
21710SOL    HW266572   7.120   1.528  11.196  0.0431 -0.8601 -0.9859
21711SOL     OW66573   6.297   5.034  11.679 -0.0041  0.5162  0.4926
21711SOL    HW166574   6.367   5.099  11.672  0.7607 -0.4342 -1.3094
21711SOL    HW266575   6.339   4.959  11.720 -0.1866  0.2473  0.1899
21712SOL     OW66576   2.870   3.975  10.660 -0.8324  0.2611  0.1356
21712SOL    HW166577   2.879   3.992  10.754  1.4243  0.0044  0.0140
21712SOL    HW266578   2.956   3.993  10.624 -0.6871 -2.8694 -1.3932
21713SOL     OW66579   5.816   1.497  10.993 -0.6030  0.3702  0.5831
21713SOL    HW166580   5.812   1.575  11.049  1.6737 -0.5120  2.1559
21713SOL    HW266581   5.786   1.426  11.049  0.7904 -0.3882  0.4230
21714SOL     OW66582   6.438   3.547  12.450 -0.2218  0.2666  0.0606
21714SOL    HW166583   6.475   3.461  12.468 -1.1097 -0.5117 -1.6336
21714SOL    HW266584   6.513   3.599  12.418 -0.0327 -0.4800 -0.7509
21715SOL     OW66585   4.346   4.710  12.474  0.1428  0.1281 -0.0685
21715SOL    HW166586   4.441   4.706  12.486  0.3638  0.9763 -1.3514
21715SOL    HW266587   4.312   4.639  12.529  1.4406  0.3234  1.0499
21716SOL     OW66588   5.613   4.087  12.274  0.1567  0.2236  0.3470
21716SOL    HW166589   5.563   4.154  12.228  1.6470  1.1912  0.0380
21716SOL    HW266590   5.694   4.079  12.223 -0.0885 -2.0542  0.2019
21717SOL     OW66591   7.671   5.606   0.690 -0.3552  0.7743  0.2237
21717SOL    HW166592   7.722   5.564   0.759  0.5838  0.7357 -0.4694
21717SOL    HW266593   7.614   5.667   0.736  0.4765  0.9858  1.0110
21718SOL     OW66594   6.388   4.424   0.141 -0.2264 -0.4228 -0.2190
21718SOL    HW166595   6.428   4.380   0.215  1.8381  0.8741 -0.4822
21718SOL    HW266596   6.387   4.517   0.165 -1.6142 -0.2312 -0.9067
21719SOL     OW66597   6.041   5.125  11.575  0.1936  0.1481 -0.1551
21719SOL    HW166598   6.080   5.187  11.637  2.0657  1.8702 -2.8006
21719SOL    HW266599   5.947   5.127  11.595  0.1872  3.6715  0.2013
21720SOL     OW66600   6.115   6.628  12.012 -0.2071 -0.4160  0.2745
21720SOL    HW166601   6.067   6.566  11.957  0.1718 -0.6098  0.1640
21720SOL    HW266602   6.115   6.709  11.962 -1.3018 -0.1227  0.7167
21721SOL     OW66603   6.976   4.837  11.726  0.4675 -0.0495 -0.1089
21721SOL    HW166604   6.946   4.875  11.643 -0.4257 -0.5110 -0.0092
21721SOL    HW266605   6.951   4.901  11.792  0.5269 -0.0146 -0.1198
21722SOL     OW66606   5.005   5.402  11.777 -0.2927 -0.4875 -0.1040
21722SOL    HW166607   5.022   5.435  11.865 -1.2345  1.4120 -0.5617
21722SOL    HW266608   4.992   5.308  11.787  3.0868 -0.9532  1.2462
21723SOL     OW66609   5.895   4.179  11.641  0.5039  0.7550  0.0744
21723SOL    HW166610   5.975   4.177  11.695  0.4989  1.8545  0.1445
21723SOL    HW266611   5.928   4.177  11.551  0.5888  0.5909  0.1085
21724SOL     OW66612   6.207   5.515   0.438  0.1455  0.5220 -0.5270
21724SOL    HW166613   6.121   5.554   0.423 -0.3747 -0.5469 -0.3970
21724SOL    HW266614   6.250   5.574   0.499 -1.8395 -0.7218  2.2663
21725SOL     OW66615   6.464   5.567  12.325 -0.2405  1.1657 -0.0091
21725SOL    HW166616   6.492   5.535  12.239 -0.7544  0.7048 -0.0169
21725SOL    HW266617   6.545   5.576  12.375  0.3692  4.0604 -1.3578
21726SOL     OW66618   5.236   4.824  10.891  0.4735  0.1079  0.6091
21726SOL    HW166619   5.170   4.795  10.828  1.2744 -0.3610 -0.0364
21726SOL    HW266620   5.186   4.852  10.967 -0.5283  0.7621 -0.2564
21727SOL     OW66621   7.110   4.591   0.503 -0.6703 -0.3058  0.4201
21727SOL    HW166622   7.095   4.519   0.442  2.0021 -1.0327  0.4684
21727SOL    HW266623   7.142   4.663   0.449 -1.5733  0.2500  0.5975
21728SOL     OW66624   4.734   3.968   0.177  0.8939 -0.3925 -0.1159
21728SOL    HW166625   4.700   3.914   0.105  2.2099 -1.9946  0.4126
21728SOL    HW266626   4.656   3.998   0.222  0.0916 -1.5110 -0.6921
21729SOL     OW66627   7.516   3.988  10.294 -0.3505  0.6013 -0.4669
21729SOL    HW166628   7.587   4.030  10.343 -0.9251  0.4644  0.5117
21729SOL    HW266629   7.468   3.937  10.360 -1.3746  0.7050 -1.1083
21730SOL     OW66630   6.412   5.510  10.997 -0.1229  0.5087  0.2841
21730SOL    HW166631   6.388   5.436  11.054 -0.1860  0.1633 -0.1875
21730SOL    HW266632   6.423   5.583  11.057  1.1810 -0.1677  0.9183
21731SOL     OW66633   5.229   2.508  11.894  0.5073 -0.3339 -0.0495
21731SOL    HW166634   5.312   2.470  11.921  0.4270 -0.0057  0.6678
21731SOL    HW266635   5.222   2.487  11.801  0.3699 -2.2571  0.3614
21732SOL     OW66636   7.617   5.013   9.696  0.1010  0.3176  0.1756
21732SOL    HW166637   7.661   5.098   9.691  1.3645 -0.3821 -1.4025
21732SOL    HW266638   7.551   5.016   9.626 -1.2858  0.7264  1.4468
21733SOL     OW66639   6.067   5.328  12.127 -0.0590 -0.0217  0.2648
21733SOL    HW166640   6.037   5.239  12.146 -0.6787  0.0088 -0.4926
21733SOL    HW266641   6.160   5.327  12.147 -0.2389 -0.5832  1.1410
21734SOL     OW66642   6.184   5.526  12.452  0.2226 -0.1207  0.5860
21734SOL    HW166643   6.116   5.525  12.520 -1.1271  0.8584 -0.6857
21734SOL    HW266644   6.221   5.614  12.457 -1.0351  0.5391 -0.9880
21735SOL     OW66645   5.799   6.753  11.062  0.1069 -0.1696  0.3749
21735SOL    HW166646   5.889   6.766  11.031 -0.6341 -0.5319 -2.1188
21735SOL    HW266647   5.805   6.679  11.122  1.4127 -0.4086 -0.0100
21736SOL     OW66648   6.480   6.020   9.656  0.1266 -0.1968 -0.1743
21736SOL    HW166649   6.395   5.975   9.664  0.3545 -1.0255 -1.9182
21736SOL    HW266650   6.458   6.103   9.613  0.2116 -0.5555 -0.9336
21737SOL     OW66651   7.569   3.713  12.378 -0.0361  0.2518 -0.3781
21737SOL    HW166652   7.650   3.752  12.346  0.3666 -1.6080 -1.8479
21737SOL    HW266653   7.500   3.771  12.347  0.6555  1.1760 -0.2189
21738SOL     OW66654   5.984   4.422  11.866  0.1896  0.3187  0.0520
21738SOL    HW166655   5.922   4.383  11.928  0.4316  0.5875  0.4728
21738SOL    HW266656   5.936   4.494  11.825 -0.1999 -0.3038 -0.5933
21739SOL     OW66657   0.259   2.624   1.969 -0.2206 -0.0465  0.0884
21739SOL    HW166658   0.296   2.665   1.891 -1.7336  1.0043 -0.1465
21739SOL    HW266659   0.322   2.558   1.995 -0.6916 -2.1078 -3.4032
21740SOL     OW66660   7.171   4.731  11.291  0.1756  0.1248  0.0887
21740SOL    HW166661   7.261   4.756  11.315  0.1022  0.9098 -0.4188
21740SOL    HW266662   7.115   4.790  11.340  0.0379  2.4445 -2.5967
21741SOL     OW66663   6.198   4.580  11.550 -0.0452  0.1398  0.4314
21741SOL    HW166664   6.173   4.672  11.542 -1.2056 -0.1730  0.2794
21741SOL    HW266665   6.118   4.532  11.531  0.6112 -0.9130  0.2729
21742SOL     OW66666   6.572   2.931   9.871  0.3619  0.2129 -0.0078
21742SOL    HW166667   6.477   2.922   9.880  0.2756  0.5573 -0.5440
21742SOL    HW266668   6.585   2.964   9.782  0.9572  0.6782  0.2464
21743SOL     OW66669   6.032   5.641  10.994 -0.3582  0.5789 -0.7212
21743SOL    HW166670   6.105   5.647  10.933  0.7683 -0.1449  0.4866
21743SOL    HW266671   5.983   5.722  10.981 -0.5028  0.1989 -2.9475
21744SOL     OW66672   7.013   5.987  11.660 -0.0771  0.5633 -0.1141
21744SOL    HW166673   7.060   6.070  11.652  0.1552  0.5492  1.0619
21744SOL    HW266674   6.997   5.976  11.753 -0.6853 -0.4002 -0.3128
21745SOL     OW66675   5.881   4.989   9.581  0.0866  0.3385  0.1597
21745SOL    HW166676   5.846   5.077   9.598 -0.3596  0.6822 -2.1957
21745SOL    HW266677   5.853   4.937   9.656  0.1255  2.1214  1.4831
21746SOL     OW66678   4.998   3.578   9.640  0.3353 -0.2213  0.7175
21746SOL    HW166679   4.929   3.518   9.613  0.3128 -1.4849  3.2762
21746SOL    HW266680   5.076   3.546   9.595 -0.2796 -0.2013 -0.3906
21747SOL     OW66681   5.856   3.937  11.291  0.3144  0.0313  0.6451
21747SOL    HW166682   5.784   3.883  11.259  0.4653 -0.2235  0.7372
21747SOL    HW266683   5.860   3.918  11.385 -0.9753  1.7317  1.1083
21748SOL     OW66684   4.682   5.643  11.296 -0.3775  0.3251  0.3183
21748SOL    HW166685   4.761   5.624  11.347 -1.3004  0.1359  1.7355
21748SOL    HW266686   4.685   5.582  11.223  1.2041  0.9022 -0.1502
21749SOL     OW66687   4.999   5.125  12.316 -0.3043  0.3395 -0.0541
21749SOL    HW166688   5.013   5.030  12.309  1.8566  0.4382  1.7184
21749SOL    HW266689   5.035   5.160  12.235  0.8047 -0.2218  0.1750
21750SOL     OW66690   5.424   3.883  12.226 -0.0948  0.0468  0.1082
21750SOL    HW166691   5.345   3.937  12.219  1.1791  1.8759 -1.3866
21750SOL    HW266692   5.492   3.943  12.256  1.0046 -1.1693  0.1546
21751SOL     OW66693   5.333   5.795  11.214 -0.5880  0.4177 -0.4925
21751SOL    HW166694   5.247   5.806  11.255 -0.1389 -0.9019  0.8931
21751SOL    HW266695   5.375   5.881  11.225 -0.5162  0.1403  1.8287
21752SOL     OW66696   6.154   3.790  11.100  0.8021  0.3254  0.0484
21752SOL    HW166697   6.241   3.784  11.060  0.4705 -0.3868 -0.5779
21752SOL    HW266698   6.151   3.878  11.137  1.9525  0.2137  0.4610
21753SOL     OW66699   6.797   4.654  11.821  0.0178 -0.1969 -0.4189
21753SOL    HW166700   6.769   4.577  11.773 -0.7995 -0.4111  0.3775
21753SOL    HW266701   6.857   4.699  11.762 -3.3155  1.2717 -3.0205
21754SOL     OW66702   6.226   2.275  12.004 -0.0445 -0.7443 -0.5440
21754SOL    HW166703   6.285   2.328  11.951  0.3177  0.0738  0.6298
21754SOL    HW266704   6.216   2.325  12.086 -1.5053 -1.3901 -0.2941
21755SOL     OW66705   6.662   4.653   0.670  0.2997 -0.1325 -0.5177
21755SOL    HW166706   6.640   4.707   0.746  0.0718 -0.8494 -0.0591
21755SOL    HW266707   6.690   4.569   0.707  1.4699 -0.0654 -1.1857
21756SOL     OW66708   5.840   4.029   0.067 -0.2182 -0.3722  0.0069
21756SOL    HW166709   5.901   4.028   0.141 -0.1229 -1.6694 -0.0610
21756SOL    HW266710   5.892   3.993  -0.006 -0.2490  1.0693 -0.7520
21757SOL     OW66711   6.905   4.943   0.145 -0.7773  0.5766 -0.2496
21757SOL    HW166712   6.947   5.028   0.156  0.5121 -0.0769  0.1085
21757SOL    HW266713   6.840   4.939   0.215 -0.5502  1.0941 -0.0026
21758SOL     OW66714   6.778   4.432  12.225  0.4667  0.0068 -0.1958
21758SOL    HW166715   6.690   4.463  12.248  0.2362  0.2327 -1.3403
21758SOL    HW266716   6.824   4.510  12.195  0.6332 -0.3424 -0.8591
21759SOL     OW66717   5.104   3.099   1.357  0.1788  0.2181  0.7276
21759SOL    HW166718   5.077   3.124   1.268  0.3384 -0.0356  0.6064
21759SOL    HW266719   5.032   3.045   1.390  0.7229 -0.8248  0.2411
21760SOL     OW66720   4.975   4.998   1.525 -0.0438  0.1500 -0.0090
21760SOL    HW166721   4.903   4.947   1.563 -1.0866  1.7220  0.1976
21760SOL    HW266722   4.952   5.006   1.433 -0.5242  1.2311  0.1858
21761SOL     OW66723   7.043   3.823  11.948  0.4050 -0.6404 -0.0200
21761SOL    HW166724   7.045   3.789  11.858  0.8667 -0.0644 -0.2399
21761SOL    HW266725   7.086   3.756  12.000 -2.1059 -2.1681  0.2288
21762SOL     OW66726   5.031   5.698   9.708  0.1793 -0.6559 -0.7870
21762SOL    HW166727   4.994   5.610   9.712 -1.8289  0.1513 -0.8530
21762SOL    HW266728   5.016   5.735   9.795 -0.6968  0.2708 -1.3147
21763SOL     OW66729   5.278   5.030  11.414 -0.0587  0.0475 -0.1138
21763SOL    HW166730   5.204   5.091  11.418 -0.2252 -0.0986 -0.7558
21763SOL    HW266731   5.346   5.078  11.366 -0.6935 -0.7443 -1.8973
21764SOL     OW66732   6.717   6.193  12.430  0.3783 -0.4008  0.0218
21764SOL    HW166733   6.752   6.182  12.518  1.5702  0.6247 -0.2983
21764SOL    HW266734   6.630   6.153  12.434  1.5150 -3.0320  0.8528
21765SOL     OW66735   6.415   4.228  10.361 -0.5011 -0.0898  0.0905
21765SOL    HW166736   6.443   4.194  10.446  0.4324  0.7008  0.1157
21765SOL    HW266737   6.349   4.293  10.382 -0.1174  0.2566  0.2250
21766SOL     OW66738   6.546   4.339  11.525 -0.2300 -0.6755  0.3847
21766SOL    HW166739   6.576   4.267  11.580 -0.3898 -1.9436 -1.1162
21766SOL    HW266740   6.626   4.383  11.497 -0.1345 -0.2082  1.3478
21767SOL     OW66741   4.648   4.658   0.033  0.1356  0.4202 -0.6553
21767SOL    HW166742   4.685   4.705   0.109 -0.5378  0.1850 -0.1784
21767SOL    HW266743   4.705   4.683  -0.040  1.1586  0.1866  0.0346
21768SOL     OW66744   6.265   2.464  11.201  0.5828  0.3675 -0.0239
21768SOL    HW166745   6.214   2.545  11.193 -0.1175 -0.1569 -0.9586
21768SOL    HW266746   6.344   2.481  11.150 -1.2550 -0.8511 -3.5376
21769SOL     OW66747   4.252   4.441  12.101 -0.3296  0.0051  0.3101
21769SOL    HW166748   4.214   4.415  12.185  0.3185  2.1575  1.3273
21769SOL    HW266749   4.332   4.389  12.094  0.1906  0.5935  1.5896
21770SOL     OW66750   6.206   4.674   0.530  0.2926  0.3096  0.3689
21770SOL    HW166751   6.254   4.722   0.597 -0.6492 -1.3260  2.3428
21770SOL    HW266752   6.116   4.705   0.538  0.0948 -0.1878  0.1457
21771SOL     OW66753   6.110   5.116  11.923  0.4799  0.0730 -0.0794
21771SOL    HW166754   6.188   5.103  11.870  0.7995 -2.2881  0.8645
21771SOL    HW266755   6.092   5.210  11.917  3.3424  0.6817 -0.3558
21772SOL     OW66756   4.433   4.800  11.131  0.1932 -0.1377  0.1807
21772SOL    HW166757   4.347   4.801  11.173 -0.2840 -0.5500 -0.7334
21772SOL    HW266758   4.415   4.828  11.041  0.7936 -1.5450 -0.4016
21773SOL     OW66759   3.270   4.080   0.491 -0.8473  0.2806  0.9397
21773SOL    HW166760   3.228   4.050   0.410  0.9855 -0.0117  0.0508
21773SOL    HW266761   3.322   4.005   0.521  2.2142  1.7825 -0.2245
21774SOL     OW66762   7.702   4.300   0.434  0.3715 -0.0975  0.2481
21774SOL    HW166763   7.705   4.387   0.474 -1.2441  0.9068 -1.6832
21774SOL    HW266764   7.610   4.285   0.413  0.3969 -2.8215  1.5562
21775SOL     OW66765   6.169   3.354   0.022 -0.8414 -0.2540 -0.0952
21775SOL    HW166766   6.130   3.441   0.034 -0.0368  0.1848 -0.5539
21775SOL    HW266767   6.094   3.295   0.018 -1.5257  0.6389 -1.5331
21776SOL     OW66768   7.988   3.503  12.092  0.5243 -0.1601  0.4984
21776SOL    HW166769   8.037   3.572  12.137 -0.5304  1.6645 -1.0055
21776SOL    HW266770   8.043   3.480  12.016 -0.1038  0.6358 -0.2167
21777SOL     OW66771   7.761   4.482  12.420 -0.5608  0.1048 -0.9405
21777SOL    HW166772   7.744   4.567  12.459  0.5648  0.0331 -0.2591
21777SOL    HW266773   7.758   4.497  12.326  1.8425  1.4109 -0.8822
21778SOL     OW66774   6.744   3.831  11.642 -0.0079 -0.7103  0.5309
21778SOL    HW166775   6.774   3.882  11.566 -0.6020 -0.0480  0.7381
21778SOL    HW266776   6.783   3.874  11.717  1.9761 -2.3488  0.5366
21779SOL     OW66777   6.600   5.933  12.102 -0.9092  0.5055  0.6448
21779SOL    HW166778   6.537   5.921  12.173 -1.1267  1.4622  0.6325
21779SOL    HW266779   6.682   5.953  12.145 -0.9594  0.7393  0.6305
21780SOL     OW66780   6.282   3.278  10.028  0.1687  0.1171  0.0621
21780SOL    HW166781   6.317   3.231   9.952  1.6584 -0.3329  0.9843
21780SOL    HW266782   6.188   3.281  10.013  0.2518 -1.4625 -0.9641
21781SOL     OW66783   7.178   7.201   0.663 -0.2340  0.3894  0.5099
21781SOL    HW166784   7.226   7.164   0.589 -0.2064 -1.2275  1.2959
21781SOL    HW266785   7.144   7.284   0.630  0.6388  0.2000 -0.9820
21782SOL     OW66786   7.917   5.138  10.309 -0.2589 -0.0921 -0.3994
21782SOL    HW166787   7.866   5.152  10.388  1.1739 -0.4428  0.6342
21782SOL    HW266788   7.861   5.168  10.237 -1.7825 -0.2502  0.6950
21783SOL     OW66789   0.558   4.532   0.349  0.4998 -0.1664  0.7098
21783SOL    HW166790   0.607   4.582   0.284 -1.2340  0.5501 -0.0991
21783SOL    HW266791   0.559   4.442   0.316 -1.2647  0.3595 -0.9598
21784SOL     OW66792   6.422   5.452   0.185  0.5136 -0.3120  0.2738
21784SOL    HW166793   6.499   5.433   0.238  0.0919 -1.1262  0.6188
21784SOL    HW266794   6.352   5.467   0.249  0.0041 -1.2745 -0.0293
21785SOL     OW66795   5.299   5.648   0.986 -0.1380  0.6604  0.1676
21785SOL    HW166796   5.278   5.627   0.895  1.4340 -0.4202  0.0228
21785SOL    HW266797   5.221   5.621   1.036 -1.6664  2.6867 -0.9478
21786SOL     OW66798   6.685   4.577  10.254 -0.4710 -0.2765 -0.5416
21786SOL    HW166799   6.680   4.482  10.264  1.5784 -0.6690 -2.5846
21786SOL    HW266800   6.765   4.601  10.300 -0.6638  0.4153 -0.5581
21787SOL     OW66801   7.924   4.942   0.146  0.1485 -0.0331 -0.0041
21787SOL    HW166802   7.990   5.010   0.145  0.0963  0.0223  0.2690
21787SOL    HW266803   7.845   4.983   0.110  0.1256  0.0418  0.1317
21788SOL     OW66804   6.872   3.383  11.100 -0.1007  0.3518 -0.2135
21788SOL    HW166805   6.876   3.355  11.192  0.3226 -0.9346 -0.6078
21788SOL    HW266806   6.924   3.464  11.097 -0.3440  0.5516  0.7238
21789SOL     OW66807   5.425   5.775  11.905 -0.2944 -0.0522  0.4331
21789SOL    HW166808   5.364   5.823  11.961 -0.1854  1.0591 -0.3614
21789SOL    HW266809   5.512   5.796  11.938 -0.2452  0.3238  0.0747
21790SOL     OW66810   7.227   5.056   0.006 -0.6012 -0.2009 -0.1237
21790SOL    HW166811   7.277   5.087  -0.069 -0.5535 -0.2203 -0.1004
21790SOL    HW266812   7.229   5.130   0.068  0.3102 -0.5857  0.3200
21791SOL     OW66813   7.348   2.021   0.794 -0.6152  0.1755 -0.3763
21791SOL    HW166814   7.320   2.055   0.879 -2.0972 -1.5852 -0.0869
21791SOL    HW266815   7.309   2.081   0.730 -2.3712 -0.3361  0.1366
21792SOL     OW66816   5.702   3.744  12.118 -0.5290 -0.0386 -0.7220
21792SOL    HW166817   5.613   3.772  12.141 -0.3920  0.7864 -1.1960
21792SOL    HW266818   5.754   3.824  12.119  0.4527 -0.6566  0.5956
21793SOL     OW66819   6.262   4.642  10.546 -0.3524 -0.1787  0.0012
21793SOL    HW166820   6.193   4.705  10.567  0.5937  1.2733 -1.0615
21793SOL    HW266821   6.234   4.603  10.462  0.7453  1.4418 -1.1657
21794SOL     OW66822   0.233   3.295  11.966  0.4096 -0.4937 -1.0993
21794SOL    HW166823   0.196   3.248  12.041  0.6164  0.5446 -0.3219
21794SOL    HW266824   0.325   3.268  11.964  0.6964  0.3782 -0.2333
21795SOL     OW66825   5.677   5.184  11.317  0.5248 -0.0713 -0.0594
21795SOL    HW166826   5.651   5.224  11.400  0.5280 -1.7952  0.8327
21795SOL    HW266827   5.763   5.222  11.298  0.6942  0.0712  0.9391
21796SOL     OW66828   5.303   3.503  11.582  0.2748 -0.0282 -0.0763
21796SOL    HW166829   5.311   3.409  11.564 -2.3587 -0.3729  0.2864
21796SOL    HW266830   5.360   3.517  11.658  0.5291 -1.3752  0.0146
21797SOL     OW66831   7.834   4.708  11.552  1.2319 -0.1744  0.1706
21797SOL    HW166832   7.805   4.648  11.621 -0.3365  2.2360  1.7721
21797SOL    HW266833   7.897   4.765  11.594  1.0757  0.6624 -0.6907
21798SOL     OW66834   6.809   2.445  11.849  0.1142 -0.4438  0.7102
21798SOL    HW166835   6.887   2.465  11.900  1.2031 -0.1697 -0.9794
21798SOL    HW266836   6.756   2.524  11.854  1.0511  0.2603 -0.0086
21799SOL     OW66837   6.839   4.674  12.093  0.0869 -0.0574 -0.2870
21799SOL    HW166838   6.796   4.669  12.008  0.4216  0.7879 -0.5168
21799SOL    HW266839   6.832   4.766  12.118 -0.4572 -0.3869  0.8441
21800SOL     OW66840   6.208   5.293   0.609  0.1872  0.2480  0.2783
21800SOL    HW166841   6.229   5.336   0.526  1.1441  1.1207  0.9438
21800SOL    HW266842   6.113   5.278   0.605 -0.4331  3.4312  0.4294
21801SOL     OW66843   6.803   6.287  11.843  0.5208  0.4266 -0.2526
21801SOL    HW166844   6.727   6.260  11.793 -0.1977  0.2421  0.9028
21801SOL    HW266845   6.796   6.240  11.926  2.1061  0.1023 -0.2603
21802SOL     OW66846   4.779   4.976  11.854  0.3924 -0.5215 -0.2528
21802SOL    HW166847   4.729   5.054  11.879  0.7066 -0.6117  0.7286
21802SOL    HW266848   4.727   4.903  11.885  1.0367 -0.6198  0.6646
21803SOL     OW66849   5.747   4.985  10.994  0.0775 -0.4187 -0.4528
21803SOL    HW166850   5.656   4.957  10.994 -0.8411  2.3573 -0.1440
21803SOL    HW266851   5.788   4.934  11.065 -1.6242 -0.4975  0.5178
21804SOL     OW66852   6.500   4.372  12.091  0.3653  0.0242  0.1037
21804SOL    HW166853   6.526   4.418  12.171  0.0944  0.2762  0.0493
21804SOL    HW266854   6.417   4.412  12.067 -0.5915 -1.4613  0.8126
21805SOL     OW66855   0.114   5.119  10.937  0.1452 -0.1722 -0.0553
21805SOL    HW166856   0.103   5.117  11.032 -0.0886 -1.1550 -0.0988
21805SOL    HW266857   0.193   5.067  10.921  0.3851  0.2817 -0.3774
21806SOL     OW66858   6.674   4.946  11.894  0.0338  0.2886  0.1421
21806SOL    HW166859   6.641   4.935  11.805  0.4538 -1.0939  0.1361
21806SOL    HW266860   6.767   4.968  11.883  0.1397 -0.1063  0.2409
21807SOL     OW66861   5.042   3.904  11.076  0.7504 -0.7953  0.1052
21807SOL    HW166862   5.024   3.824  11.126  3.9590  0.7908  4.4262
21807SOL    HW266863   5.122   3.885  11.028  1.9613 -0.1505  1.7438
21808SOL     OW66864   6.800   1.756   0.442  0.0725  0.4299  0.1536
21808SOL    HW166865   6.742   1.723   0.512  1.3483 -0.2640  0.9358
21808SOL    HW266866   6.770   1.845   0.427 -0.5801  0.4238  1.2319
21809SOL     OW66867   7.578   5.705  11.159 -0.1968  0.0603 -0.4837
21809SOL    HW166868   7.657   5.759  11.156  0.0986 -0.3814 -0.8803
21809SOL    HW266869   7.575   5.663  11.073  0.0566 -1.1984  0.0938
21810SOL     OW66870   4.800   5.404  10.973  0.3728 -0.5234  0.4077
21810SOL    HW166871   4.719   5.403  11.023  0.7069 -2.1365  0.9492
21810SOL    HW266872   4.834   5.315  10.978  1.4781 -0.2320 -0.9753
21811SOL     OW66873   4.762   5.115   0.303  0.0635  0.5227 -0.4992
21811SOL    HW166874   4.684   5.151   0.345  0.9468  1.2080  0.6145
21811SOL    HW266875   4.813   5.191   0.278  0.6111  0.0741 -0.7674
21812SOL     OW66876   6.388   3.201   0.069  0.7506 -0.5711 -0.5363
21812SOL    HW166877   6.305   3.238   0.040  1.0300  0.3359 -0.1902
21812SOL    HW266878   6.378   3.189   0.163 -0.1967 -3.6185 -0.9183
21813SOL     OW66879   5.469   5.874  12.245  0.1015 -0.4223  1.1669
21813SOL    HW166880   5.532   5.804  12.232  0.8959  0.0464  2.3418
21813SOL    HW266881   5.384   5.829  12.243  0.2599 -0.8270 -2.1509
21814SOL     OW66882   7.721   5.632  12.157 -0.2052 -0.0659  0.3359
21814SOL    HW166883   7.713   5.596  12.246 -0.3753 -1.4424 -0.2167
21814SOL    HW266884   7.649   5.591  12.109 -0.3827  1.0124 -0.3435
21815SOL     OW66885   5.143   5.829   0.158  0.0198 -0.5612 -0.4161
21815SOL    HW166886   5.132   5.851   0.066 -1.0963 -0.7362 -0.3323
21815SOL    HW266887   5.073   5.767   0.178  0.6795 -1.0782  0.3744
21816SOL     OW66888   6.461   2.060   1.044 -0.3195  0.1343 -0.0752
21816SOL    HW166889   6.455   2.009   1.125 -0.0092 -0.3079 -0.3267
21816SOL    HW266890   6.456   2.151   1.072  0.5868  0.0104  0.5181
21817SOL     OW66891   5.227   4.056   0.306  0.4163 -0.5916  0.3177
21817SOL    HW166892   5.249   4.109   0.382  0.4403  0.6552 -0.5133
21817SOL    HW266893   5.283   3.979   0.312  0.8220 -0.2302  1.2603
21818SOL     OW66894   7.234   5.375   0.136 -0.4230  0.4672  0.0932
21818SOL    HW166895   7.323   5.401   0.159 -0.3946  0.3521  0.1138
21818SOL    HW266896   7.225   5.399   0.044 -0.1425 -0.1215 -0.0941
21819SOL     OW66897   6.059   6.417   0.080  0.4552 -0.1263 -0.3472
21819SOL    HW166898   5.980   6.469   0.070 -0.0721 -0.5954  1.0995
21819SOL    HW266899   6.110   6.434   0.001 -0.7783  0.7110 -0.9840
21820SOL     OW66900   5.868   2.078   0.789 -0.2936  0.0318 -0.2898
21820SOL    HW166901   5.949   2.029   0.773 -0.7831 -0.4980 -1.1775
21820SOL    HW266902   5.817   2.067   0.709 -0.9664  0.9188  0.0050
21821SOL     OW66903   6.896   2.938  12.266  0.5597 -0.3729 -0.1763
21821SOL    HW166904   6.855   2.985  12.193  1.4594 -1.4225 -1.4049
21821SOL    HW266905   6.919   3.007  12.328 -0.1106  0.5740 -0.9354
21822SOL     OW66906   5.777   5.561  11.225 -0.3234  0.0668  0.5479
21822SOL    HW166907   5.790   5.519  11.140  0.8000  0.5968  0.4309
21822SOL    HW266908   5.839   5.634  11.225 -1.3454  0.9631  1.2412
21823SOL     OW66909   5.475   4.116   9.936  0.1517 -0.3041 -0.3037
21823SOL    HW166910   5.569   4.101   9.927  0.1435 -0.3451 -0.3217
21823SOL    HW266911   5.440   4.097   9.849  0.1038 -0.4574 -0.2520
21824SOL     OW66912   5.661   2.729  12.494 -0.1627 -0.0122  0.0489
21824SOL    HW166913   5.750   2.694  12.485 -0.9094 -1.7726 -0.9705
21824SOL    HW266914   5.609   2.680  12.431 -2.4656 -1.1152  2.6093
21825SOL     OW66915   5.086   1.800  11.494  0.1846  0.3899 -0.4041
21825SOL    HW166916   5.097   1.829  11.585 -0.5209 -0.3502 -0.0682
21825SOL    HW266917   5.124   1.870  11.441  0.3293  0.9656  0.4530
21826SOL     OW66918   4.157   4.520  10.293  0.1367  0.1013  0.5409
21826SOL    HW166919   4.242   4.479  10.278 -0.1227 -0.4270  0.4908
21826SOL    HW266920   4.093   4.451  10.272 -0.2798 -0.8307  4.1839
21827SOL     OW66921   5.271   6.350   1.245  0.5494  0.2378 -0.3927
21827SOL    HW166922   5.349   6.346   1.300 -0.0598  1.4738  0.6089
21827SOL    HW266923   5.218   6.420   1.282 -1.7256 -1.4761 -0.1199
21828SOL     OW66924   6.424   6.400   0.558 -0.1364 -0.3515 -0.1795
21828SOL    HW166925   6.370   6.388   0.637  0.0498 -3.0443 -0.3681
21828SOL    HW266926   6.374   6.462   0.504 -0.9981  0.3884  1.3766
21829SOL     OW66927   5.790   7.014   0.829 -0.4382  0.0053  0.4505
21829SOL    HW166928   5.779   6.960   0.907 -2.3714  0.5186  0.5918
21829SOL    HW266929   5.822   6.953   0.762 -0.8817 -0.9448  1.0764
21830SOL     OW66930   6.869   7.234  11.541  0.9105 -0.0441 -0.0283
21830SOL    HW166931   6.872   7.248  11.447 -1.2914 -0.4427 -0.2001
21830SOL    HW266932   6.959   7.211  11.565  1.7739  1.2637 -1.7977
21831SOL     OW66933   7.114   5.894   0.608 -0.1275 -0.2775 -0.7464
21831SOL    HW166934   7.115   5.937   0.522 -1.1103  1.4880  0.0862
21831SOL    HW266935   7.194   5.925   0.650  0.1055 -0.7579 -0.8294
21832SOL     OW66936   6.452   7.839   0.220 -0.1414  0.0968  0.0295
21832SOL    HW166937   6.390   7.845   0.147 -1.7190  0.8557  1.3706
21832SOL    HW266938   6.537   7.859   0.181 -1.0340  1.1167 -1.4891
21833SOL     OW66939   5.521   5.972   0.781 -0.1534 -0.3215  0.2100
21833SOL    HW166940   5.484   6.060   0.770 -0.0057 -0.2715  0.1219
21833SOL    HW266941   5.464   5.931   0.847 -0.3402 -0.2278  0.1092
21834SOL     OW66942   6.186   7.430   0.389  0.4529 -0.0848 -0.0238
21834SOL    HW166943   6.114   7.493   0.381  1.6373  1.6370  1.9443
21834SOL    HW266944   6.265   7.483   0.395  1.8000 -1.8847 -0.7570
21835SOL     OW66945   6.372   5.772   2.163  0.3792  0.3256 -0.3072
21835SOL    HW166946   6.327   5.791   2.081 -2.3025 -1.5258  0.5998
21835SOL    HW266947   6.393   5.858   2.200 -0.4073  1.2215 -1.8545
21836SOL     OW66948   5.999   7.002   0.354 -0.2403 -0.1247  0.0712
21836SOL    HW166949   6.006   6.922   0.301 -0.2781  0.2606 -0.5350
21836SOL    HW266950   5.973   6.972   0.441  0.4714 -0.8348  0.0489
21837SOL     OW66951   6.532   0.759   2.059 -0.1971  0.0468 -0.4577
21837SOL    HW166952   6.598   0.698   2.091  0.2624 -0.0115 -1.4846
21837SOL    HW266953   6.570   0.846   2.073 -0.1512  0.0368 -0.5236
21838SOL     OW66954   5.581   5.097   0.911 -0.4224  0.5610 -0.0147
21838SOL    HW166955   5.625   5.163   0.858 -0.4955  0.0697 -0.7000
21838SOL    HW266956   5.488   5.118   0.905 -0.4287  0.5215 -0.0536
21839SOL     OW66957   6.742   6.356   1.299 -0.6864 -0.1256  0.8111
21839SOL    HW166958   6.732   6.286   1.364  0.0980  0.5209  1.6620
21839SOL    HW266959   6.803   6.321   1.235 -0.4206 -0.2859  1.1495
21840SOL     OW66960   6.582   6.669   2.650  0.2813 -0.0258 -0.2918
21840SOL    HW166961   6.520   6.678   2.723  2.8987  0.9141  2.0225
21840SOL    HW266962   6.566   6.581   2.616  0.5623 -1.6279  3.2081
21841SOL     OW66963   5.864   7.166  12.057 -0.2338  0.3763  0.4479
21841SOL    HW166964   5.883   7.241  12.114  0.5751  0.7935 -0.3476
21841SOL    HW266965   5.852   7.204  11.970  0.8158 -0.4604 -0.0905
21842SOL     OW66966   6.399   6.637   1.404 -0.1741  0.8115 -0.4875
21842SOL    HW166967   6.359   6.705   1.458  1.6863  1.2255  0.4503
21842SOL    HW266968   6.387   6.557   1.454  0.5258  1.0036 -0.0065
21843SOL     OW66969   6.420   0.865   1.457 -0.3854 -0.3168 -0.1584
21843SOL    HW166970   6.455   0.797   1.400  0.1750  0.5021 -0.8071
21843SOL    HW266971   6.365   0.817   1.520 -0.6845 -1.2716 -1.1139
21844SOL     OW66972   6.495   7.225  11.238  0.6871 -0.6339 -0.3814
21844SOL    HW166973   6.531   7.312  11.256 -0.3288 -0.3956  0.6211
21844SOL    HW266974   6.403   7.232  11.264  0.6952 -2.1153  0.1152
21845SOL     OW66975   4.877   6.344   2.112 -0.5848 -0.1021  0.0752
21845SOL    HW166976   4.782   6.357   2.113 -0.3857  1.6901 -0.6652
21845SOL    HW266977   4.913   6.432   2.121  1.0266 -0.7740  0.5223
21846SOL     OW66978   4.197   7.102  12.315  0.5428 -0.6961 -0.3392
21846SOL    HW166979   4.123   7.160  12.332 -1.1666 -3.1252  1.1403
21846SOL    HW266980   4.196   7.088  12.221 -0.6699 -0.3675 -0.3907
21847SOL     OW66981   7.957   6.787   1.490 -0.3939 -0.3389  0.2737
21847SOL    HW166982   7.923   6.813   1.576  1.6981  0.2329  0.9755
21847SOL    HW266983   7.885   6.739   1.450 -2.4464  1.7935  1.1777
21848SOL     OW66984   5.186   1.121  12.283 -0.3822  0.1405 -0.0358
21848SOL    HW166985   5.216   1.211  12.295 -1.9130  0.8177 -0.9536
21848SOL    HW266986   5.108   1.114  12.338  0.0352 -0.8021  0.4512
21849SOL     OW66987   7.396   5.592   0.812 -0.0017  0.1733  0.3729
21849SOL    HW166988   7.362   5.505   0.791 -1.6070  0.9427 -0.4665
21849SOL    HW266989   7.382   5.643   0.732 -1.2593  1.7866  1.5422
21850SOL     OW66990   0.335   7.286   1.394 -0.2449 -0.2640  0.0096
21850SOL    HW166991   0.256   7.337   1.373  1.6995  2.7986 -0.3987
21850SOL    HW266992   0.347   7.299   1.488  0.8245  1.0000 -0.2733
21851SOL     OW66993   3.715   6.510   1.788 -0.3400 -0.2249 -0.3659
21851SOL    HW166994   3.788   6.496   1.848 -1.7680  0.3563  1.5933
21851SOL    HW266995   3.728   6.600   1.756 -0.3424 -0.0184  0.2012
21852SOL     OW66996   7.033   1.461  11.354  0.1814  0.2571 -0.1688
21852SOL    HW166997   6.938   1.452  11.349  0.1424  0.4224  0.2086
21852SOL    HW266998   7.066   1.372  11.366 -0.1295  0.4212  2.6601
21853SOL     OW66999   6.463   7.844   0.982 -0.7112 -0.4162  0.4948
21853SOL    HW167000   6.487   7.790   0.907 -1.0854 -0.0535  0.1094
21853SOL    HW267001   6.431   7.783   1.047 -0.6292 -0.7083  0.2620
21854SOL     OW67002   7.379   6.727   1.382 -0.2689 -0.3090 -0.2503
21854SOL    HW167003   7.403   6.799   1.323 -0.3656 -1.1995 -1.4121
21854SOL    HW267004   7.284   6.731   1.387 -0.2194  0.1491  0.3487
21855SOL     OW67005   6.530   5.712   1.687 -0.0045 -0.5198  0.3570
21855SOL    HW167006   6.596   5.721   1.618 -0.7273 -2.2792 -0.6274
21855SOL    HW267007   6.561   5.639   1.740  0.6671  0.9683  2.1087
21856SOL     OW67008   6.902   7.282   0.974  0.4864 -0.0244  0.3344
21856SOL    HW167009   6.887   7.207   1.031  0.8976 -0.5577 -0.2443
21856SOL    HW267010   6.973   7.330   1.017  1.4127 -0.9067 -0.1638
21857SOL     OW67011   7.466   7.319   1.676  0.4131 -0.3431  0.4133
21857SOL    HW167012   7.407   7.390   1.702  0.5381  0.7604 -2.0245
21857SOL    HW267013   7.408   7.247   1.652 -0.0351  0.6098 -1.6107
21858SOL     OW67014   5.876   5.122   1.281  0.1014 -0.0436 -0.1081
21858SOL    HW167015   5.781   5.127   1.284  0.0958  0.4397 -0.7975
21858SOL    HW267016   5.897   5.130   1.188  0.9656  2.8538  0.2534
21859SOL     OW67017   6.581   7.370   0.376 -0.2364  0.3644  0.7223
21859SOL    HW167018   6.673   7.399   0.375 -0.4656  1.1139 -0.2886
21859SOL    HW267019   6.580   7.293   0.319 -0.2986  0.5787  0.4316
21860SOL     OW67020   6.761   6.983   1.264 -0.6401  0.0678  0.1254
21860SOL    HW167021   6.684   6.980   1.320 -2.9861  0.2385 -2.8524
21860SOL    HW267022   6.814   6.908   1.292 -3.4261 -1.9922  0.2789
21861SOL     OW67023   7.396   6.082   1.817  0.3808  0.1078 -0.0220
21861SOL    HW167024   7.338   6.033   1.759  1.0956  0.0630 -0.7174
21861SOL    HW267025   7.375   6.050   1.904 -0.3000 -0.2482 -0.3087
21862SOL     OW67026   5.945   0.209   2.163  0.8183 -0.5500  0.1177
21862SOL    HW167027   5.944   0.293   2.117 -0.2119 -0.6225 -0.0301
21862SOL    HW267028   6.025   0.211   2.216  1.4622 -0.0211 -0.8549
21863SOL     OW67029   7.339   6.947  12.395  0.7116 -0.1035  0.6490
21863SOL    HW167030   7.328   6.852  12.394 -0.2920  0.0013  0.5541
21863SOL    HW267031   7.254   6.981  12.369  1.4203  0.8128 -0.5602
21864SOL     OW67032   5.251   6.713   1.422 -0.8198 -0.1220 -0.2924
21864SOL    HW167033   5.222   6.621   1.418  1.1124 -0.7556 -0.7698
21864SOL    HW267034   5.343   6.708   1.447 -0.9946  1.7868  0.8970
21865SOL     OW67035   7.022   6.456   2.272  0.1251  0.1663  0.4956
21865SOL    HW167036   6.936   6.417   2.288 -0.5787  1.7643  0.8645
21865SOL    HW267037   7.014   6.544   2.308  1.8631  0.4120  0.3331
21866SOL     OW67038   6.244   6.344   1.104  0.1962 -0.2846  0.9489
21866SOL    HW167039   6.172   6.289   1.135  1.1929 -1.1124  1.8804
21866SOL    HW267040   6.323   6.305   1.143  1.4545 -0.8071 -1.8818
21867SOL     OW67041   6.266   6.492   0.317 -0.3693 -0.0772  0.5819
21867SOL    HW167042   6.296   6.563   0.260  0.4904 -0.8035  0.1094
21867SOL    HW267043   6.182   6.523   0.351 -0.9365  0.3466 -1.1183
21868SOL     OW67044   6.571   5.407   0.887  0.2736 -0.2803  0.6729
21868SOL    HW167045   6.500   5.423   0.949  1.4599  2.2884  1.4867
21868SOL    HW267046   6.639   5.366   0.939  0.1393 -0.9553  0.3310
21869SOL     OW67047   5.447   6.310   0.621 -0.3406 -0.0818 -0.0115
21869SOL    HW167048   5.486   6.337   0.538 -1.0712  0.0006 -0.3315
21869SOL    HW267049   5.518   6.317   0.684  0.3059 -0.4319 -0.6847
21870SOL     OW67050   5.289   7.542  11.889  0.1402  0.1966  0.3184
21870SOL    HW167051   5.294   7.545  11.984 -0.1987 -2.0786  0.4672
21870SOL    HW267052   5.273   7.633  11.862 -0.4665  0.7665  2.4543
21871SOL     OW67053   0.144   4.889   0.946 -0.0120  0.1338  0.1626
21871SOL    HW167054   0.056   4.924   0.953  0.3347  0.9369  0.7253
21871SOL    HW267055   0.201   4.965   0.963  0.7616 -0.8023  2.0792
21872SOL     OW67056   6.773   5.305   1.696 -0.2932  0.2194  0.0915
21872SOL    HW167057   6.810   5.312   1.784 -0.2510 -1.4037  0.2453
21872SOL    HW267058   6.686   5.267   1.710 -0.4657  0.3791 -0.5352
21873SOL     OW67059   6.591   6.966   1.691  0.0308  0.4316 -0.1186
21873SOL    HW167060   6.587   6.975   1.595 -0.8241  2.7465  0.0848
21873SOL    HW267061   6.529   6.896   1.711 -1.3925  1.3428 -1.1371
21874SOL     OW67062   4.414   6.201  11.288  0.2212 -0.3568 -0.2672
21874SOL    HW167063   4.416   6.227  11.380  0.0565 -1.9561  0.2025
21874SOL    HW267064   4.490   6.144  11.277  0.1920 -0.2573 -1.1224
21875SOL     OW67065   5.339   7.486  12.414  0.4453 -0.1330  0.6885
21875SOL    HW167066   5.303   7.575  12.414 -0.4456 -0.4929  0.2466
21875SOL    HW267067   5.408   7.489  12.347 -1.3400 -0.4623 -1.2521
21876SOL     OW67068   5.970   0.584   2.389  0.1442  0.3975  0.3948
21876SOL    HW167069   6.062   0.562   2.372  0.0058  1.1698 -1.6938
21876SOL    HW267070   5.968   0.680   2.392 -0.3160  0.3640  2.4986
21877SOL     OW67071   6.413   6.973  12.179 -0.0423  0.8403 -0.3610
21877SOL    HW167072   6.484   7.028  12.143  0.5108  0.4418  0.1083
21877SOL    HW267073   6.458   6.912  12.237 -0.6842  0.0643 -0.6668
21878SOL     OW67074   4.860   7.608  12.153  0.6063 -0.0774  0.4824
21878SOL    HW167075   4.862   7.516  12.180  0.2873  0.3597  2.0888
21878SOL    HW267076   4.839   7.604  12.059  2.3146 -1.6835  0.1031
21879SOL     OW67077   6.574   5.742   0.387 -0.7439 -0.1663 -0.7398
21879SOL    HW167078   6.509   5.760   0.318  0.3349 -0.2643 -1.8265
21879SOL    HW267079   6.655   5.723   0.339 -0.5842 -3.0294  0.4641
21880SOL     OW67080   7.033   6.009   1.614  0.0205 -0.1261 -0.0948
21880SOL    HW167081   6.977   5.932   1.624 -0.6581  0.1467 -1.5074
21880SOL    HW267082   7.122   5.976   1.621 -0.2729 -0.9902 -0.3988
21881SOL     OW67083   6.153   1.688  12.385 -0.0574 -0.3448  0.3487
21881SOL    HW167084   6.124   1.713  12.297  0.5636  0.4278  0.3461
21881SOL    HW267085   6.114   1.755  12.442 -0.4484 -0.8387  0.6634
21882SOL     OW67086   6.475   4.107   0.594  0.4283 -0.1188 -1.0623
21882SOL    HW167087   6.539   4.060   0.647  1.3464  0.8841 -1.2645
21882SOL    HW267088   6.417   4.038   0.560 -0.1225 -0.8214  1.0971
21883SOL     OW67089   6.632   7.902  12.377 -0.1898  0.2372  0.0769
21883SOL    HW167090   6.683   7.968  12.329 -0.6267  0.5633  0.0602
21883SOL    HW267091   6.694   7.830  12.390  0.0631  0.3236 -0.5912
21884SOL     OW67092   7.849   4.303  11.063  0.8878  0.1146 -0.1314
21884SOL    HW167093   7.804   4.245  11.002  1.7630  0.3743 -1.0547
21884SOL    HW267094   7.939   4.306  11.031  0.5659  3.1483 -1.0541
21885SOL     OW67095   6.585   7.172   0.968 -0.3305  0.0445  0.1240
21885SOL    HW167096   6.522   7.171   1.040 -2.2727  0.1292 -1.4897
21885SOL    HW267097   6.544   7.226   0.901  1.8261  0.7286 -0.7501
21886SOL     OW67098   6.568   6.841   0.311 -0.6649 -0.2991  0.3893
21886SOL    HW167099   6.644   6.827   0.254  0.6621  0.0969  1.9739
21886SOL    HW267100   6.579   6.777   0.382 -2.9513 -1.6613 -0.3691
21887SOL     OW67101   5.920   1.001   0.151 -0.1778 -0.0454 -0.2661
21887SOL    HW167102   5.928   1.006   0.056 -0.5470  0.6007 -0.2739
21887SOL    HW267103   5.876   0.918   0.167 -0.5032  0.0373 -0.6936
21888SOL     OW67104   7.886   6.859   1.736  0.4254 -0.0596 -0.4423
21888SOL    HW167105   7.892   6.822   1.824 -1.8396  0.0103 -0.1855
21888SOL    HW267106   7.849   6.946   1.750 -0.1511 -0.1226 -1.4704
21889SOL     OW67107   4.598   3.409   0.401 -0.2671  0.3127 -0.3248
21889SOL    HW167108   4.524   3.469   0.403 -1.0920 -0.6849  0.1656
21889SOL    HW267109   4.616   3.389   0.493 -1.0797 -1.4168 -0.4920
21890SOL     OW67110   5.222   5.914   0.586  0.0928  0.7281 -0.0370
21890SOL    HW167111   5.271   5.872   0.657 -1.5960  0.2664  0.9202
21890SOL    HW267112   5.173   5.984   0.629 -0.4945  0.8346 -0.8535
21891SOL     OW67113   7.707   7.805   2.746  0.3005 -0.4759  0.0876
21891SOL    HW167114   7.715   7.812   2.651 -1.6830  0.4682 -0.0717
21891SOL    HW267115   7.758   7.878   2.781 -0.4890  0.3243 -0.3822
21892SOL     OW67116   7.755   7.115   1.705 -0.4582 -0.0907  0.0529
21892SOL    HW167117   7.828   7.139   1.647 -1.0962  0.7850 -0.4295
21892SOL    HW267118   7.683   7.173   1.677 -0.9163  0.0477  1.4345
21893SOL     OW67119   6.489   0.436   2.383 -0.3909 -0.6368  0.0928
21893SOL    HW167120   6.537   0.424   2.301 -0.6475  0.3946 -0.2133
21893SOL    HW267121   6.491   0.530   2.399  1.5867 -0.9703  2.4601
21894SOL     OW67122   6.211   7.226  11.243 -0.0440  0.3659 -0.0418
21894SOL    HW167123   6.124   7.259  11.220 -0.2688  0.2498  0.6145
21894SOL    HW267124   6.199   7.185  11.329  0.8553  1.1386  0.4645
21895SOL     OW67125   6.731   5.803  12.387 -0.7059  0.0931  0.1098
21895SOL    HW167126   6.691   5.718  12.408  1.7707 -0.9297  1.0459
21895SOL    HW267127   6.768   5.833  12.470 -0.8969  1.7820 -0.3689
21896SOL     OW67128   7.195   5.877  12.142 -0.3773  0.0862 -0.3398
21896SOL    HW167129   7.113   5.831  12.128  1.0448 -1.8681 -3.2749
21896SOL    HW267130   7.227   5.845  12.226 -2.1119  0.2050  0.4152
21897SOL     OW67131   3.787   3.502   0.609 -0.2017 -0.0897  0.4788
21897SOL    HW167132   3.801   3.595   0.624 -1.3480  0.2761 -0.6122
21897SOL    HW267133   3.872   3.462   0.629  0.9299  1.4186 -1.0641
21898SOL     OW67134   0.073   5.142   0.209  0.3017 -0.3289  0.1619
21898SOL    HW167135   0.052   5.235   0.198 -0.4526 -0.3889  1.0027
21898SOL    HW267136   0.160   5.142   0.248  0.1971  0.0364  0.4043
21899SOL     OW67137   6.853   7.445   0.438 -0.2168  0.1253  0.3832
21899SOL    HW167138   6.840   7.350   0.436  1.2467 -0.1097 -0.7653
21899SOL    HW267139   6.925   7.458   0.500  0.2750  0.3411 -0.2097
21900SOL     OW67140   6.743   6.195  12.111 -0.2428  0.3392 -0.2061
21900SOL    HW167141   6.772   6.107  12.137  0.8633  0.4128 -1.1100
21900SOL    HW267142   6.650   6.196  12.130 -0.1462 -0.7980  0.4542
21901SOL     OW67143   5.763   6.039   0.650  0.3910  0.1636  0.0714
21901SOL    HW167144   5.681   6.017   0.693  0.8051 -1.4128  0.1392
21901SOL    HW267145   5.739   6.100   0.581 -1.1213 -1.5719 -1.0324
21902SOL     OW67146   6.838   7.100   0.779  0.1366 -0.3072  0.2301
21902SOL    HW167147   6.765   7.151   0.814 -0.1376 -1.1471  0.9270
21902SOL    HW267148   6.916   7.137   0.820  0.3192  1.5858 -1.6515
21903SOL     OW67149   5.593   6.972   2.364  0.3769  0.1500  0.9345
21903SOL    HW167150   5.515   6.945   2.412  0.0939  1.8067  1.4957
21903SOL    HW267151   5.573   6.950   2.273 -0.7523  0.5061  1.0710
21904SOL     OW67152   5.093   7.323   0.043 -0.7254 -0.4538 -0.1817
21904SOL    HW167153   5.079   7.417   0.033 -0.8278 -0.3375  0.9555
21904SOL    HW267154   5.138   7.314   0.126  0.1270 -1.3509 -0.7217
21905SOL     OW67155   6.792   6.037   0.158  0.6533 -0.3040 -0.0587
21905SOL    HW167156   6.699   6.041   0.180  0.5762  1.3335 -0.5517
21905SOL    HW267157   6.816   5.945   0.170 -1.0929 -0.8059 -0.1903
21906SOL     OW67158   6.305   7.298   3.055 -0.1174  0.6118  0.0756
21906SOL    HW167159   6.293   7.265   3.144  0.2416  0.6524  0.1407
21906SOL    HW267160   6.283   7.391   3.061 -1.7349  0.2688 -0.2400
21907SOL     OW67161   6.570   6.366   1.505 -0.3552 -0.1332  0.1717
21907SOL    HW167162   6.560   6.434   1.571  1.2002  0.2341  0.0755
21907SOL    HW267163   6.631   6.403   1.442  1.0743 -1.8326  0.4662
21908SOL     OW67164   6.820   7.285   0.007  0.3002 -0.2498 -0.0048
21908SOL    HW167165   6.835   7.305  -0.085 -0.4258  0.9252  0.1100
21908SOL    HW267166   6.771   7.203   0.006  1.6883 -1.1127 -0.5798
21909SOL     OW67167   1.491   6.153   0.680  0.1663  0.1426 -0.4769
21909SOL    HW167168   1.426   6.111   0.624  0.0771  0.7666 -0.8614
21909SOL    HW267169   1.572   6.104   0.664 -0.2093 -0.6554  0.0289
21910SOL     OW67170   6.461   6.412  12.372  0.2780  0.6960 -0.6815
21910SOL    HW167171   6.508   6.434  12.452 -0.3622 -0.5367  0.0600
21910SOL    HW267172   6.514   6.344  12.330 -0.6361 -0.4904  0.0097
21911SOL     OW67173   7.168   7.976   1.658 -0.0250 -0.0552 -0.5092
21911SOL    HW167174   7.114   7.906   1.695 -1.1475  0.4919 -1.0404
21911SOL    HW267175   7.255   7.962   1.694 -0.6552 -0.6469  0.8307
21912SOL     OW67176   2.309   5.188  10.687 -1.0036  0.4017 -0.5404
21912SOL    HW167177   2.301   5.101  10.647 -1.9502 -0.6232  1.7094
21912SOL    HW267178   2.398   5.190  10.721 -1.3021 -0.1323  0.3036
21913SOL     OW67179   6.020   7.444   0.631  0.0488 -0.3053 -0.0751
21913SOL    HW167180   6.061   7.426   0.547 -1.5739 -2.2269 -0.4977
21913SOL    HW267181   5.938   7.396   0.630  0.3055 -1.0390  2.8967
21914SOL     OW67182   7.625   7.927   3.638  0.6030 -0.2233 -0.0113
21914SOL    HW167183   7.676   7.884   3.569  2.3216 -0.6201  1.4516
21914SOL    HW267184   7.597   7.856   3.696 -0.8219  0.1069 -0.2380
21915SOL     OW67185   6.686   0.561   2.176  0.2380 -0.0798 -0.0906
21915SOL    HW167186   6.778   0.548   2.153 -0.0171 -1.2797 -0.4675
21915SOL    HW267187   6.643   0.479   2.153 -0.7402  0.0801  1.0716
21916SOL     OW67188   0.190   6.902   2.699  0.4841 -0.0841 -0.0560
21916SOL    HW167189   0.201   6.877   2.791 -0.4878 -0.1167  0.0679
21916SOL    HW267190   0.270   6.874   2.656  0.5342 -0.9772  0.5938
21917SOL     OW67191   5.994   5.096   0.244 -0.5576  0.2148  0.1214
21917SOL    HW167192   5.961   5.143   0.320  1.1711 -0.5090  1.3943
21917SOL    HW267193   6.076   5.141   0.222  0.1721 -1.0335  0.2052
21918SOL     OW67194   7.747   6.046   1.970 -0.2300  0.6329 -0.0622
21918SOL    HW167195   7.692   5.969   1.952 -0.2207  0.7284 -0.5034
21918SOL    HW267196   7.828   6.029   1.923  0.5287  0.0251  1.3945
21919SOL     OW67197   6.504   5.124   1.247  0.1483 -0.6172 -0.1945
21919SOL    HW167198   6.564   5.132   1.320  1.1998 -4.6785 -0.3424
21919SOL    HW267199   6.434   5.068   1.280 -0.7634 -0.3324 -1.5624
21920SOL     OW67200   6.697   5.106   2.973  0.0353 -0.4979  0.4804
21920SOL    HW167201   6.609   5.108   2.936  0.7940 -0.0994 -1.4334
21920SOL    HW267202   6.755   5.109   2.897  1.7160  1.1714  1.7243
21921SOL     OW67203   5.648   5.627   0.759  0.3818  0.3087 -0.0114
21921SOL    HW167204   5.564   5.606   0.718 -0.2417  0.8855  0.9343
21921SOL    HW267205   5.634   5.608   0.852  1.2946  0.4451  0.1585
21922SOL     OW67206   4.946   7.652   1.758 -0.1784 -0.1367 -0.4276
21922SOL    HW167207   5.036   7.659   1.788 -0.4025 -1.2412  0.5832
21922SOL    HW267208   4.931   7.559   1.746 -1.0670  0.0626 -0.9631
21923SOL     OW67209   5.804   5.958   1.616  0.1440  0.1232 -0.6629
21923SOL    HW167210   5.867   5.887   1.614 -0.9698 -0.9105 -0.1047
21923SOL    HW267211   5.718   5.915   1.618 -0.5585  1.4677 -0.3604
21924SOL     OW67212   5.738   6.907   0.185 -0.1188  0.1561  0.4379
21924SOL    HW167213   5.701   6.924   0.272 -0.1881 -1.6380  0.8054
21924SOL    HW267214   5.826   6.944   0.188  0.4102 -1.1142  1.8001
21925SOL     OW67215   5.860   6.412   1.230 -0.1270  0.0381  0.0281
21925SOL    HW167216   5.784   6.429   1.174  0.1146 -1.1472 -0.6898
21925SOL    HW267217   5.885   6.499   1.263 -0.5055  0.7350 -1.4099
21926SOL     OW67218   6.863   7.960   1.988 -0.5828  0.4811  0.2372
21926SOL    HW167219   6.786   7.906   2.002 -1.8774  2.2195  0.2163
21926SOL    HW267220   6.909   7.959   2.072 -1.9187  1.2958  1.0133
21927SOL     OW67221   5.627   7.081  11.575 -0.4565  0.6049 -0.0339
21927SOL    HW167222   5.550   7.044  11.619  0.7876 -0.1864  1.5542
21927SOL    HW267223   5.637   7.168  11.614 -0.3808  0.5942 -0.0286
21928SOL     OW67224   7.245   0.756   2.870  0.9333 -0.3967  0.2386
21928SOL    HW167225   7.152   0.778   2.861  0.9388 -0.9319 -1.6418
21928SOL    HW267226   7.281   0.826   2.924 -0.0815  1.2748 -1.1330
21929SOL     OW67227   7.497   4.034   0.340  0.3966  0.2788  0.7826
21929SOL    HW167228   7.443   3.969   0.386  0.5656 -0.9274 -0.6341
21929SOL    HW267229   7.434   4.089   0.293  0.3060 -1.0766 -0.8040
21930SOL     OW67230   5.511   7.592  12.200 -0.0845  0.0347  0.0117
21930SOL    HW167231   5.441   7.636  12.151  0.1898  0.2957 -0.1437
21930SOL    HW267232   5.591   7.637  12.174 -0.0275  0.7531  1.3757
21931SOL     OW67233   6.577   4.792   0.901  0.2722  0.0740 -0.1293
21931SOL    HW167234   6.538   4.742   0.974 -1.0848  0.0193 -0.8679
21931SOL    HW267235   6.543   4.881   0.912  1.6229  0.5480  0.4039
21932SOL     OW67236   7.146   7.644   2.463  0.2503  0.2254 -0.7067
21932SOL    HW167237   7.176   7.734   2.463 -1.7416  0.9730 -2.4212
21932SOL    HW267238   7.055   7.649   2.492  0.0048 -1.1750 -1.1579
21933SOL     OW67239   5.759   5.434   1.547  0.2379  0.3806  0.3513
21933SOL    HW167240   5.809   5.491   1.606  0.3768  0.0560  0.5492
21933SOL    HW267241   5.800   5.348   1.557 -1.4722 -0.3260  1.8767
21934SOL     OW67242   5.637   4.622   2.621  0.3996  0.2661  0.7229
21934SOL    HW167243   5.612   4.704   2.579 -0.0987 -0.6653 -0.9201
21934SOL    HW267244   5.638   4.558   2.549 -0.9107 -1.5314  2.1945
21935SOL     OW67245   6.104   7.083  12.321  0.0528  0.2680 -0.5466
21935SOL    HW167246   6.146   7.133  12.251  0.0441 -0.1972 -0.8875
21935SOL    HW267247   6.071   7.004  12.278  0.5596 -0.2991  0.0761
21936SOL     OW67248   6.640   7.105   0.257 -0.4530 -0.2613 -0.2763
21936SOL    HW167249   6.712   7.064   0.304 -0.0312  1.5005  0.7216
21936SOL    HW267250   6.576   7.035   0.245  0.6638 -1.4363  0.4016
21937SOL     OW67251   6.276   6.235   0.197 -0.0647  0.3194  0.3724
21937SOL    HW167252   6.277   6.307   0.260 -1.2949  1.5385 -0.9359
21937SOL    HW267253   6.193   6.245   0.150  0.7254 -0.6520 -1.3264
21938SOL     OW67254   5.441   5.923   0.434  0.0522 -0.2635 -0.2786
21938SOL    HW167255   5.348   5.943   0.447  0.4902  2.8357 -1.2357
21938SOL    HW267256   5.486   5.968   0.505  0.9986  0.5334 -1.3447
21939SOL     OW67257   4.702   6.957   0.430 -0.3452  0.3622 -0.4005
21939SOL    HW167258   4.769   6.952   0.362  0.0966  0.8353 -0.0190
21939SOL    HW267259   4.693   6.868   0.462  0.3063  0.3313 -0.2814
21940SOL     OW67260   4.521   6.859   1.700 -0.5822 -0.4162 -0.1912
21940SOL    HW167261   4.544   6.829   1.788 -0.7202 -0.5425 -0.1974
21940SOL    HW267262   4.606   6.873   1.657 -0.4919 -2.2149 -0.6671
21941SOL     OW67263   0.982   7.850   3.881  0.5047 -0.3477 -0.0690
21941SOL    HW167264   1.033   7.772   3.902  0.6349 -0.6723 -1.5185
21941SOL    HW267265   1.048   7.916   3.856  0.3052 -0.2879 -0.4426
21942SOL     OW67266   6.332   7.579  11.126  0.0785 -0.6173  0.2101
21942SOL    HW167267   6.299   7.504  11.077 -2.0156  0.0593  0.4620
21942SOL    HW267268   6.288   7.573  11.211 -0.4545  1.0927  0.0907
21943SOL     OW67269   5.469   5.393  10.893  0.1348  0.2450  0.1084
21943SOL    HW167270   5.469   5.426  10.983  1.1435 -1.5492  0.8219
21943SOL    HW267271   5.380   5.410  10.862  0.2730  2.5889  0.7484
21944SOL     OW67272   6.005   7.299   1.051  0.3491 -0.1961 -0.0511
21944SOL    HW167273   6.041   7.319   1.137  0.5824  0.6884 -0.3442
21944SOL    HW267274   5.910   7.314   1.060  0.3406 -0.3520  0.1180
21945SOL     OW67275   6.277   5.942   1.205 -0.0275 -0.0095 -0.0323
21945SOL    HW167276   6.219   5.911   1.275 -0.8382  0.3997 -0.5103
21945SOL    HW267277   6.223   5.937   1.126  0.9316 -0.6203 -0.6631
21946SOL     OW67278   7.384   0.076   0.591 -0.2613 -0.3702 -0.2724
21946SOL    HW167279   7.415   0.166   0.603  0.2647 -0.3032 -1.8675
21946SOL    HW267280   7.309   0.084   0.532 -1.5924 -0.8064  1.3051
21947SOL     OW67281   4.751   6.050   1.384  0.1449  0.2143 -0.0932
21947SOL    HW167282   4.781   5.964   1.412 -0.9393  0.1170  0.8691
21947SOL    HW267283   4.740   6.099   1.465  0.8348  1.3060 -0.6349
21948SOL     OW67284   1.206   4.365  11.970 -0.7336  0.2445  0.0765
21948SOL    HW167285   1.241   4.343  12.056  0.5046  0.0245 -0.4692
21948SOL    HW267286   1.121   4.321  11.966 -0.4805 -0.3278  0.9046
21949SOL     OW67287   7.509   4.636  12.146  0.1873 -0.1185  0.0403
21949SOL    HW167288   7.504   4.704  12.214  0.2989  1.7226 -1.7213
21949SOL    HW267289   7.603   4.621  12.136  0.1527 -0.8608  0.6944
21950SOL     OW67290   6.017   7.680   1.451 -0.1864  1.1100 -0.3779
21950SOL    HW167291   5.944   7.737   1.426 -0.4808 -0.2035 -2.7424
21950SOL    HW267292   6.050   7.719   1.532 -2.8153  2.3680  0.2093
21951SOL     OW67293   5.223   7.494   2.062  0.3578  0.2327 -0.4671
21951SOL    HW167294   5.260   7.480   1.975 -0.8742 -0.1096 -0.9678
21951SOL    HW267295   5.296   7.522   2.116  2.1398 -3.7556 -0.4753
21952SOL     OW67296   3.974   5.037   0.318 -0.0713  0.2053  0.5395
21952SOL    HW167297   3.887   5.000   0.333 -0.1058  0.5395  1.1980
21952SOL    HW267298   4.024   4.965   0.279 -0.5528 -0.0835  0.4490
21953SOL     OW67299   7.276   4.901   1.954 -0.4798 -0.1442 -0.4411
21953SOL    HW167300   7.332   4.845   1.900 -1.0777 -3.3742  1.9523
21953SOL    HW267301   7.338   4.953   2.007  0.2442 -1.4153  0.0016
21954SOL     OW67302   6.292   4.969   1.315  0.4041 -0.3391  0.9644
21954SOL    HW167303   6.205   4.941   1.344 -0.5621  1.7321  0.2453
21954SOL    HW267304   6.283   4.981   1.221  0.8317  1.9325  1.1688
21955SOL     OW67305   5.853   7.881   1.345  0.1826  0.0571  0.6328
21955SOL    HW167306   5.862   7.938   1.421 -1.0390 -0.2948  1.0549
21955SOL    HW267307   5.851   7.940   1.270 -1.0775  0.5801  1.0645
21956SOL     OW67308   6.364   0.679  11.610  0.6272  0.3303 -0.1897
21956SOL    HW167309   6.406   0.647  11.690  0.1802 -1.9285 -0.8012
21956SOL    HW267310   6.377   0.774  11.613  0.2939  0.3801  2.7534
21957SOL     OW67311   6.437   6.250   1.266  0.0682 -0.1225  0.4198
21957SOL    HW167312   6.489   6.276   1.342  1.9872 -0.6964 -0.6186
21957SOL    HW267313   6.481   6.172   1.233 -1.8829 -1.0293 -0.1485
21958SOL     OW67314   4.748   7.560  11.546  0.5035  0.5713  0.3336
21958SOL    HW167315   4.811   7.624  11.579  0.0999  0.6914  0.8836
21958SOL    HW267316   4.764   7.558  11.451  1.3663  0.5523  0.4736
21959SOL     OW67317   6.121   4.916   1.937 -0.0292 -0.1278 -0.2379
21959SOL    HW167318   6.037   4.963   1.939  0.1607  0.2115 -0.1551
21959SOL    HW267319   6.136   4.899   1.844 -0.7905 -1.2947 -0.1703
21960SOL     OW67320   5.756   6.970   1.769 -0.3115  0.5549  0.1874
21960SOL    HW167321   5.842   6.964   1.810  0.6704  0.1277 -1.8268
21960SOL    HW267322   5.720   6.881   1.775  0.1255  0.3289 -0.4563
21961SOL     OW67323   5.960   6.346   1.516 -0.5507 -0.6112  0.0974
21961SOL    HW167324   5.933   6.353   1.424  1.2133 -0.2669 -0.4304
21961SOL    HW267325   6.017   6.270   1.518  0.6980  0.3097  0.5536
21962SOL     OW67326   7.310   7.281   2.007  0.4116 -0.8165  0.0205
21962SOL    HW167327   7.301   7.259   2.099 -1.9740 -0.7937 -0.1527
21962SOL    HW267328   7.302   7.197   1.961  3.1608 -1.0612 -0.1692
21963SOL     OW67329   6.114   0.615   2.730  0.0594 -0.0636  0.0105
21963SOL    HW167330   6.131   0.548   2.664  0.8201 -0.4552  0.5851
21963SOL    HW267331   6.042   0.581   2.782 -0.4223  0.1646 -0.4998
21964SOL     OW67332   6.447   6.627   1.141  0.4337 -0.0533 -0.1535
21964SOL    HW167333   6.414   6.538   1.155 -0.7559  0.4160  0.1490
21964SOL    HW267334   6.446   6.666   1.229 -0.7947  0.8224 -0.5308
21965SOL     OW67335   5.867   7.733  11.881  0.3289 -0.3198 -0.0573
21965SOL    HW167336   5.932   7.803  11.886 -0.7512  0.6812  0.4057
21965SOL    HW267337   5.916   7.657  11.851  1.6895  0.4370  0.1686
21966SOL     OW67338   6.725   7.595  11.386  0.0324  0.1351 -0.0820
21966SOL    HW167339   6.738   7.537  11.311 -1.1866 -0.6568  0.2892
21966SOL    HW267340   6.654   7.653  11.359  0.2747  0.5114  0.0883
21967SOL     OW67341   6.207   7.191   0.901  0.5053  0.3755  0.1752
21967SOL    HW167342   6.223   7.102   0.932 -1.3559 -0.9069 -2.2021
21967SOL    HW267343   6.136   7.224   0.956  0.9602  0.2636  0.8332
21968SOL     OW67344   6.468   7.141   1.892  0.0618 -1.0480  0.4097
21968SOL    HW167345   6.493   7.086   1.818  0.2932  1.3070 -1.3799
21968SOL    HW267346   6.534   7.122   1.959  3.5189  0.8704 -2.1226
21969SOL     OW67347   0.063   5.564   0.518  0.2830  0.3389 -0.0239
21969SOL    HW167348   0.157   5.564   0.539  0.1754  0.0124  0.4814
21969SOL    HW267349   0.036   5.473   0.532 -0.1063  0.4308 -0.1792
21970SOL     OW67350   7.422   0.031   1.744 -0.7567  0.1424 -0.7146
21970SOL    HW167351   7.491  -0.019   1.702 -1.6268  0.4917 -2.6340
21970SOL    HW267352   7.441   0.122   1.721 -1.5007  0.3050 -0.7022
21971SOL     OW67353   0.938   7.856   3.063  0.1723 -0.1991  0.4984
21971SOL    HW167354   0.854   7.810   3.059 -0.7550  1.4210  0.5177
21971SOL    HW267355   0.961   7.871   2.972 -0.3206  0.6502  0.5034
21972SOL     OW67356   4.356   6.894   0.648  0.1611 -0.0931  0.2577
21972SOL    HW167357   4.409   6.840   0.589  0.3829  0.0372  0.3352
21972SOL    HW267358   4.278   6.915   0.598 -0.4669 -1.4380  0.6180
21973SOL     OW67359   6.876   7.456   1.447  0.1196  0.1109 -0.1159
21973SOL    HW167360   6.894   7.526   1.384 -0.2089  0.4878  0.2065
21973SOL    HW267361   6.863   7.378   1.392 -2.5548  0.8888 -0.7388
21974SOL     OW67362   6.981   6.157   1.852  0.0520  0.5525  0.4641
21974SOL    HW167363   6.979   6.114   1.766 -2.8458  1.2377  0.0833
21974SOL    HW267364   6.942   6.243   1.837 -0.1047  0.8644  2.3878
21975SOL     OW67365   1.606   4.887  12.386  0.7191  0.5461  0.4366
21975SOL    HW167366   1.574   4.828  12.454  1.1178 -0.8515 -0.5298
21975SOL    HW267367   1.530   4.942  12.365 -0.1592 -0.6587  0.3190
21976SOL     OW67368   7.014   7.034   2.371  0.4287 -0.3283  0.2370
21976SOL    HW167369   7.018   7.015   2.465  1.2798 -2.1806 -0.1147
21976SOL    HW267370   6.937   6.987   2.340 -0.3326  0.9573  0.1154
21977SOL     OW67371   4.522   0.258   2.705 -0.4075  0.3902 -0.0220
21977SOL    HW167372   4.613   0.238   2.728 -0.7389 -0.8910  0.2166
21977SOL    HW267373   4.525   0.349   2.675  0.7332  0.7888  1.1991
21978SOL     OW67374   5.913   6.334   0.524 -0.1022 -0.0783 -0.1934
21978SOL    HW167375   5.951   6.281   0.454  0.6882 -2.8490  2.1316
21978SOL    HW267376   5.988   6.359   0.579 -0.9712 -0.6879  1.3365
21979SOL     OW67377   5.766   0.139   0.660 -0.2839 -0.2707 -0.0160
21979SOL    HW167378   5.728   0.119   0.746  1.1388 -0.2656  0.6360
21979SOL    HW267379   5.803   0.226   0.670 -0.3712 -0.1474 -0.7393
21980SOL     OW67380   6.713   7.471  11.624 -0.1155  0.5953  0.4240
21980SOL    HW167381   6.701   7.521  11.543  1.4109  0.9109  0.3464
21980SOL    HW267382   6.744   7.385  11.594 -4.0107 -0.9990  0.4810
21981SOL     OW67383   7.347   0.264   2.587 -0.4126 -0.5511  0.2880
21981SOL    HW167384   7.340   0.304   2.501 -1.6273 -1.6643 -0.1706
21981SOL    HW267385   7.409   0.192   2.575 -0.8161 -0.8976  0.2562
21982SOL     OW67386   0.230   4.825   1.508  0.4641  0.1740 -0.0435
21982SOL    HW167387   0.190   4.884   1.444  1.4247  1.0940  0.1637
21982SOL    HW267388   0.168   4.753   1.518 -1.1984  1.6177  0.3865
21983SOL     OW67389   6.700   4.867   1.237 -0.2398 -0.0969  0.2631
21983SOL    HW167390   6.744   4.843   1.156 -2.6186 -0.0251 -1.1310
21983SOL    HW267391   6.739   4.952   1.260 -0.3613  0.4786 -1.4846
21984SOL     OW67392   6.192   7.931   0.692  0.3999 -0.4038 -0.0882
21984SOL    HW167393   6.106   7.924   0.652  0.1949 -0.8887  0.4303
21984SOL    HW267394   6.254   7.918   0.620  0.0557  0.4768 -0.5636
21985SOL     OW67395   6.607   6.042   0.963 -0.0544  0.2054 -0.5331
21985SOL    HW167396   6.646   6.130   0.962 -2.3946  1.3179 -1.1877
21985SOL    HW267397   6.669   5.988   0.915  2.4526  0.9636  1.5967
21986SOL     OW67398   6.072   4.826  11.532 -0.7175 -0.0808 -0.1217
21986SOL    HW167399   6.046   4.851  11.621  0.8498 -0.9516  0.6303
21986SOL    HW267400   5.991   4.796  11.491 -1.3237 -0.6140  1.3699
21987SOL     OW67401   7.062   6.754   0.773 -0.4378 -0.0659 -0.1159
21987SOL    HW167402   7.138   6.779   0.826  0.3261  5.1291 -2.9672
21987SOL    HW267403   7.095   6.690   0.711  1.7650  1.9728 -1.1909
21988SOL     OW67404   6.098   7.182   0.124 -0.5621 -0.5081  0.5522
21988SOL    HW167405   6.139   7.124   0.060 -1.0124 -0.9236  0.6347
21988SOL    HW267406   6.062   7.254   0.073  0.4349 -0.0279  0.4947
21989SOL     OW67407   0.138   6.451   1.278  0.3160 -0.0595 -0.1574
21989SOL    HW167408   0.172   6.361   1.273 -1.9288 -1.1338  1.9284
21989SOL    HW267409   0.162   6.480   1.367 -2.0641 -0.0168  0.5338
21990SOL     OW67410   5.297   6.209   1.776 -0.6725  0.0105  0.0514
21990SOL    HW167411   5.286   6.145   1.846  0.7366  0.9031  1.1435
21990SOL    HW267412   5.259   6.290   1.811  1.8522  1.0064  0.6814
21991SOL     OW67413   7.909   7.780   1.141  0.2147 -0.0460  0.4964
21991SOL    HW167414   7.865   7.752   1.060  1.0233 -0.0523  0.0392
21991SOL    HW267415   7.841   7.823   1.192 -0.0802  0.9758 -0.6870
21992SOL     OW67416   7.848   4.810   0.630  0.2586 -0.0422  0.9692
21992SOL    HW167417   7.897   4.823   0.712  1.0602 -0.2125  0.5316
21992SOL    HW267418   7.911   4.834   0.561  0.0632 -1.2474  0.3509
21993SOL     OW67419   6.898   7.254  12.242  0.4791 -0.1748  0.5359
21993SOL    HW167420   6.920   7.337  12.200 -1.8053 -0.3975 -1.3575
21993SOL    HW267421   6.814   7.230  12.203 -0.1553 -2.1374  2.9017
21994SOL     OW67422   5.395   6.010   1.437 -0.1231  0.0475  0.0503
21994SOL    HW167423   5.397   6.075   1.508 -2.7004 -0.2389  0.4693
21994SOL    HW267424   5.457   5.943   1.465 -0.7505  0.1585  1.8712
21995SOL     OW67425   6.424   5.751   0.150  0.8006  0.2183  0.5199
21995SOL    HW167426   6.364   5.788   0.086  1.4365  0.2563 -0.0576
21995SOL    HW267427   6.456   5.671   0.109  0.8304 -0.0237  1.0051
21996SOL     OW67428   7.752   6.192   1.684  0.4965  0.5642 -0.2077
21996SOL    HW167429   7.715   6.211   1.771  3.7137  1.2802  1.1539
21996SOL    HW267430   7.753   6.277   1.640 -0.9278  0.2403 -0.9203
21997SOL     OW67431   4.841   5.401   0.507 -0.2692  0.5183  0.3202
21997SOL    HW167432   4.865   5.417   0.415 -1.3353  0.7032  0.0663
21997SOL    HW267433   4.748   5.421   0.512 -0.5766 -0.9524  1.1112
21998SOL     OW67434   5.987   0.445   0.040 -0.4223  0.0294  0.6686
21998SOL    HW167435   6.033   0.398  -0.030  0.8322  0.0238  1.4772
21998SOL    HW267436   5.925   0.502  -0.007  0.3328 -0.0352 -0.4477
21999SOL     OW67437   6.714   6.307   0.640  0.5665  0.9551 -0.4281
21999SOL    HW167438   6.782   6.375   0.636  0.9347  0.7090  0.9346
21999SOL    HW267439   6.724   6.258   0.559  2.4744  0.5158  0.0273
22000SOL     OW67440   6.570   7.649   1.269 -0.2636 -0.5875 -0.1783
22000SOL    HW167441   6.628   7.677   1.198 -0.7369  0.5485 -0.1403
22000SOL    HW267442   6.505   7.593   1.227 -0.9112  0.5752 -0.7914
22001SOL     OW67443   4.921   6.322   1.843  0.2739  0.5780 -0.6459
22001SOL    HW167444   4.897   6.340   1.934  0.5189  0.1989 -0.5046
22001SOL    HW267445   5.016   6.324   1.841  0.2612  1.9200 -1.1813
22002SOL     OW67446   6.230   7.563   2.774  0.1548 -0.4890 -0.0498
22002SOL    HW167447   6.298   7.614   2.729 -0.2298 -0.6414 -0.8110
22002SOL    HW267448   6.234   7.593   2.864  1.3684 -0.6295 -0.0381
22003SOL     OW67449   7.535   7.564   0.690 -0.0369  0.4404 -0.2054
22003SOL    HW167450   7.586   7.595   0.765 -0.7933 -1.1897  1.0342
22003SOL    HW267451   7.591   7.497   0.650 -1.0573 -1.2751  1.0934
22004SOL     OW67452   6.503   5.033   0.149 -0.1690  0.0501 -0.6655
22004SOL    HW167453   6.484   5.024   0.056 -0.0261 -0.8258 -0.6124
22004SOL    HW267454   6.587   5.079   0.153 -0.6439  0.9763 -0.9444
22005SOL     OW67455   7.433   7.765   2.786  0.2294  0.0749  0.0142
22005SOL    HW167456   7.419   7.841   2.844  0.2968 -0.3301  0.5717
22005SOL    HW267457   7.529   7.757   2.783  0.2791  0.9151 -1.2485
22006SOL     OW67458   5.394   6.761  11.744  0.2587 -0.3974 -0.4294
22006SOL    HW167459   5.379   6.856  11.746 -2.9142 -0.7884 -0.5475
22006SOL    HW267460   5.348   6.731  11.665 -0.4641 -2.2390  0.6298
22007SOL     OW67461   7.097   5.608   2.461  0.2411  0.0930 -0.0111
22007SOL    HW167462   7.124   5.688   2.416  4.1676 -1.1173 -0.1938
22007SOL    HW267463   7.157   5.601   2.535  0.8702 -3.1875 -0.6692
22008SOL     OW67464   6.577   5.515   2.150  0.1010 -0.4474  0.3519
22008SOL    HW167465   6.560   5.511   2.056  1.4107  0.0384  0.0738
22008SOL    HW267466   6.574   5.609   2.171  0.0116 -0.5388  0.7560
22009SOL     OW67467   5.793   7.273   0.762 -0.3906  0.5804 -0.1913
22009SOL    HW167468   5.814   7.183   0.790  0.1778  0.3600 -1.2972
22009SOL    HW267469   5.765   7.316   0.843 -1.8715 -0.9194  0.1641
22010SOL     OW67470   5.537   5.896   1.970 -0.1735 -0.0091 -0.2692
22010SOL    HW167471   5.497   5.832   2.030  0.4775 -0.8463 -0.6927
22010SOL    HW267472   5.559   5.845   1.892 -0.4592  0.9414 -0.9908
22011SOL     OW67473   6.390   7.342  10.708  0.6110  0.2299 -0.4362
22011SOL    HW167474   6.428   7.279  10.769  0.6655  0.6787  0.0052
22011SOL    HW267475   6.359   7.289  10.634 -0.4364 -0.4513  0.4610
22012SOL     OW67476   6.563   6.543   0.127  0.1948  0.4769 -0.3617
22012SOL    HW167477   6.480   6.591   0.124  0.6290  1.2736  0.1150
22012SOL    HW267478   6.578   6.526   0.220  1.0024  1.1234 -0.3605
22013SOL     OW67479   7.187   4.797   0.326  1.1582 -0.0767  0.1109
22013SOL    HW167480   7.152   4.878   0.364  1.0683 -1.0209  2.1448
22013SOL    HW267481   7.180   4.811   0.231 -0.0998  1.7425  0.4056
22014SOL     OW67482   6.932   1.254   2.452 -0.4990  0.0235  0.3511
22014SOL    HW167483   7.009   1.262   2.509  0.2612 -1.1673 -0.4783
22014SOL    HW267484   6.858   1.254   2.513  0.3287 -1.9548  1.4661
22015SOL     OW67485   6.211   7.561  11.362 -0.0808 -0.7356  0.2189
22015SOL    HW167486   6.148   7.561  11.289  0.5277  1.1440 -0.3694
22015SOL    HW267487   6.172   7.504  11.427 -2.2408  0.0594 -0.2828
22016SOL     OW67488   6.333   6.998   0.681  0.4913  0.0632 -0.0349
22016SOL    HW167489   6.328   7.054   0.758 -0.4704  1.7174 -1.2132
22016SOL    HW267490   6.251   6.949   0.681 -0.6055  1.7514 -1.1267
22017SOL     OW67491   6.967   4.715   1.280  0.4509 -0.0599  0.1391
22017SOL    HW167492   7.030   4.643   1.273  2.4543  1.6898 -0.8646
22017SOL    HW267493   6.924   4.717   1.194  0.9362  0.4034 -0.0945
22018SOL     OW67494   4.224   7.257  11.025 -0.0321  0.0587 -0.1060
22018SOL    HW167495   4.206   7.205  10.947 -0.0897 -0.6687  0.3856
22018SOL    HW267496   4.317   7.240  11.044  0.0354  0.3924 -0.1320
22019SOL     OW67497   6.434   7.328  11.564  0.0587 -0.1202 -0.0110
22019SOL    HW167498   6.426   7.259  11.630 -0.0075 -0.1675 -0.0691
22019SOL    HW267499   6.409   7.285  11.482 -0.7181  0.1723  0.0676
22020SOL     OW67500   7.401   4.031   1.031  0.0951  0.2242  0.7651
22020SOL    HW167501   7.399   3.969   0.958  1.7540  0.2041  0.7087
22020SOL    HW267502   7.424   3.977   1.107  3.9267  1.0146  0.3337
22021SOL     OW67503   6.528   0.810   0.290 -0.0545  0.4268 -0.2005
22021SOL    HW167504   6.454   0.869   0.287 -0.4350 -0.0400 -0.1719
22021SOL    HW267505   6.496   0.728   0.251  0.8083  0.6032 -1.3447
22022SOL     OW67506   0.670   6.273  12.476 -0.5397 -0.1831  0.1614
22022SOL    HW167507   0.598   6.260  12.539 -0.4306 -1.6752  0.0268
22022SOL    HW267508   0.749   6.261  12.529 -0.3994  0.7707  0.1711
22023SOL     OW67509   7.105   7.348   1.603 -0.0057 -0.4131  0.1945
22023SOL    HW167510   7.044   7.401   1.553  0.7673  1.3658  1.0678
22023SOL    HW267511   7.182   7.339   1.547  1.1135  2.1094  1.1886
22024SOL     OW67512   7.064   7.573   0.875  0.5937 -0.6710  0.1212
22024SOL    HW167513   7.079   7.528   0.958 -0.3454 -2.9469 -0.8707
22024SOL    HW267514   7.150   7.576   0.834  0.9240 -0.2282  0.8228
22025SOL     OW67515   6.543   6.923   1.438 -0.0995  0.2086  0.4473
22025SOL    HW167516   6.536   6.832   1.410  2.4269 -0.0883  0.5548
22025SOL    HW267517   6.475   6.968   1.388 -2.3102 -1.8841  1.3605
22026SOL     OW67518   7.415   5.455  11.060  0.6924  0.1689  0.8250
22026SOL    HW167519   7.481   5.470  11.128  0.5913 -0.8139  1.1606
22026SOL    HW267520   7.362   5.535  11.060  1.9646  1.0536  0.4329
22027SOL     OW67521   6.213   7.309  11.924  0.6323  1.2711 -0.1354
22027SOL    HW167522   6.187   7.242  11.986 -0.7097  0.9351 -1.0222
22027SOL    HW267523   6.309   7.305  11.923  0.5858 -0.8700 -0.4312
22028SOL     OW67524   5.497   0.685  12.403 -0.3172  0.8378 -0.1116
22028SOL    HW167525   5.447   0.609  12.373 -2.0782  1.6096  0.6827
22028SOL    HW267526   5.474   0.754  12.342  0.1904  1.0755 -0.0351
22029SOL     OW67527   5.590   7.734  12.470 -0.4604  0.2843  0.0034
22029SOL    HW167528   5.567   7.662  12.411  0.6845 -0.6974  0.7051
22029SOL    HW267529   5.525   7.802  12.452 -2.0249 -1.1866 -0.1744
22030SOL     OW67530   5.560   5.126   0.436 -0.2354  0.2034  0.2395
22030SOL    HW167531   5.654   5.115   0.447 -0.1881 -0.4098 -0.7028
22030SOL    HW267532   5.550   5.201   0.379 -0.4301  2.0970  2.5978
22031SOL     OW67533   5.688   5.751   2.944 -0.4224  0.1511 -0.0775
22031SOL    HW167534   5.661   5.702   2.866 -0.9933  2.1265 -1.1694
22031SOL    HW267535   5.606   5.779   2.984 -0.0881  0.7812  0.1673
22032SOL     OW67536   5.137   7.622   1.240  0.3042  0.1311 -0.2114
22032SOL    HW167537   5.082   7.620   1.162  1.2935 -1.0616 -0.9121
22032SOL    HW267538   5.186   7.540   1.237  3.4647  1.8937 -0.6124
22033SOL     OW67539   6.761   6.682   3.689 -0.2794  0.0173  0.1488
22033SOL    HW167540   6.741   6.707   3.599  0.3529  1.5781  0.4175
22033SOL    HW267541   6.788   6.590   3.683 -0.4320  0.0503 -1.2162
22034SOL     OW67542   6.304   7.648   1.901  0.1001 -0.3135  0.6704
22034SOL    HW167543   6.378   7.680   1.849  0.6370 -0.3401  1.4106
22034SOL    HW267544   6.311   7.553   1.896 -0.5092 -0.3344 -0.1227
22035SOL     OW67545   6.282   0.667   2.260  0.5217  0.3219 -0.2746
22035SOL    HW167546   6.322   0.690   2.176 -0.5578  0.8833 -0.6595
22035SOL    HW267547   6.275   0.751   2.306  3.3677 -0.2541  1.4697
22036SOL     OW67548   7.327   6.782   2.185  0.1951  0.5301 -0.0460
22036SOL    HW167549   7.282   6.750   2.263  0.6298  3.4891  1.5868
22036SOL    HW267550   7.277   6.859   2.158  0.5799  0.0993 -2.1813
22037SOL     OW67551   7.391   7.417   4.149  0.1610 -0.0721 -0.1080
22037SOL    HW167552   7.347   7.335   4.173 -0.0597  0.0534 -0.0865
22037SOL    HW267553   7.471   7.388   4.105  0.1043 -0.3013 -0.0651
22038SOL     OW67554   5.736   7.153   2.463  0.3702 -0.5507 -0.1046
22038SOL    HW167555   5.696   7.088   2.405 -0.7795  0.4762 -0.4996
22038SOL    HW267556   5.830   7.141   2.452  0.1666 -1.1680 -1.2716
22039SOL     OW67557   7.314   6.920   4.872  0.0445  0.9250  0.7215
22039SOL    HW167558   7.249   6.989   4.866  0.3912  1.2153  0.2833
22039SOL    HW267559   7.263   6.841   4.894 -0.2202  1.5233  2.3436
22040SOL     OW67560   4.594   7.150   2.075  0.2216 -0.0264  0.2705
22040SOL    HW167561   4.607   7.058   2.097  0.4674 -0.0950 -0.1461
22040SOL    HW267562   4.576   7.150   1.981  0.5361  0.3801  0.2063
22041SOL     OW67563   7.550   1.382   4.282 -0.7084  0.0154  0.0103
22041SOL    HW167564   7.539   1.454   4.220 -1.2304  0.7145  0.8797
22041SOL    HW267565   7.476   1.324   4.265 -0.6603  0.0321 -0.2532
22042SOL     OW67566   6.526   4.473   3.923  0.1680 -0.2040 -0.2922
22042SOL    HW167567   6.472   4.437   3.993 -0.8939  0.0865 -0.9490
22042SOL    HW267568   6.490   4.437   3.843  2.0567 -1.4114 -0.6608
22043SOL     OW67569   7.314   5.303   2.789 -0.2367 -0.2245  0.0969
22043SOL    HW167570   7.365   5.238   2.837  1.6466  0.5825 -0.7150
22043SOL    HW267571   7.304   5.376   2.850  0.0755 -0.1580  0.0699
22044SOL     OW67572   6.424   7.956   2.401  0.2102 -0.8574  0.0361
22044SOL    HW167573   6.401   7.993   2.486 -0.8607  0.1862 -0.6784
22044SOL    HW267574   6.503   7.904   2.418 -0.5857 -1.5545  1.8594
22045SOL     OW67575   0.686   1.473   3.695  0.1783 -0.2397  0.0319
22045SOL    HW167576   0.737   1.424   3.759 -0.1074  1.0697  1.3207
22045SOL    HW267577   0.745   1.541   3.664 -0.7497  1.4145  1.6848
22046SOL     OW67578   3.524   7.440  12.327 -0.4953  0.4129  0.1890
22046SOL    HW167579   3.613   7.470  12.345 -0.1144 -0.4328 -0.2184
22046SOL    HW267580   3.536   7.355  12.284 -1.4669  0.7658 -0.8091
22047SOL     OW67581   1.564   0.633   4.106 -0.0372 -0.3570 -0.1342
22047SOL    HW167582   1.657   0.638   4.129  0.1477  0.0072 -0.9540
22047SOL    HW267583   1.529   0.719   4.128 -0.0682 -0.3239 -0.3135
22048SOL     OW67584   6.068   7.056   3.686 -0.2515 -0.2469 -0.5337
22048SOL    HW167585   6.069   7.013   3.772 -0.6084  1.4181  0.3316
22048SOL    HW267586   6.130   7.005   3.633  1.4722 -0.1449  1.2937
22049SOL     OW67587   5.157   4.860   1.252  0.2085  0.0209 -0.2235
22049SOL    HW167588   5.132   4.825   1.167  1.8095 -1.4916 -0.1135
22049SOL    HW267589   5.190   4.948   1.233  0.7638 -0.3856 -1.2036
22050SOL     OW67590   6.352   6.263   3.002 -0.0883 -0.3637  0.0255
22050SOL    HW167591   6.260   6.290   3.008  0.1671  0.8257 -0.8059
22050SOL    HW267592   6.362   6.235   2.911  0.6062  0.5637 -0.2021
22051SOL     OW67593   5.603   6.667   2.610 -0.3874  0.4809 -0.1429
22051SOL    HW167594   5.691   6.635   2.631  0.2196  1.8643 -0.4789
22051SOL    HW267595   5.605   6.681   2.515 -0.7669  1.0771 -0.0668
22052SOL     OW67596   1.484   0.237   3.663 -0.1569 -0.1693 -0.6504
22052SOL    HW167597   1.450   0.214   3.576  0.0921  1.5747 -1.2511
22052SOL    HW267598   1.495   0.332   3.660  3.0012 -0.3916  0.1492
22053SOL     OW67599   4.780   7.597   1.026  0.1332  0.3346  0.1331
22053SOL    HW167600   4.784   7.513   1.072 -1.6003 -0.5179 -1.1793
22053SOL    HW267601   4.687   7.616   1.018  0.4787  1.9743 -0.3664
22054SOL     OW67602   6.963   7.335   2.359 -0.8609 -0.3399  0.1136
22054SOL    HW167603   6.966   7.245   2.327  0.0185 -0.2476 -0.0672
22054SOL    HW267604   6.887   7.373   2.315 -0.6395 -0.6978 -0.5949
22055SOL     OW67605   0.323   7.762   3.078 -0.4345 -0.1472 -0.3526
22055SOL    HW167606   0.347   7.714   3.157  2.1049  2.6320  0.7577
22055SOL    HW267607   0.233   7.792   3.094  0.0017  0.2776  1.4712
22056SOL     OW67608   5.891   5.437   3.745  0.8260  0.6954  0.1608
22056SOL    HW167609   5.818   5.375   3.743  0.2840  1.3302 -1.1699
22056SOL    HW267610   5.906   5.454   3.838  0.1296 -0.4296  0.4884
22057SOL     OW67611   5.239   7.199   3.185 -0.2998  0.2567 -0.0583
22057SOL    HW167612   5.291   7.119   3.187  0.0467  0.4314 -1.2960
22057SOL    HW267613   5.298   7.267   3.217  0.0371  0.3337 -0.8115
22058SOL     OW67614   0.804   7.998   4.076  0.0142 -0.0429  0.0362
22058SOL    HW167615   0.812   8.093   4.085  0.8619 -0.0573 -0.4373
22058SOL    HW267616   0.876   7.973   4.019 -0.5743 -0.9012 -0.3543
22059SOL     OW67617   5.084   7.134   1.672  0.0101 -0.4024  0.5048
22059SOL    HW167618   5.082   7.039   1.679 -2.0234 -0.3195  1.7458
22059SOL    HW267619   5.125   7.162   1.754 -1.0397 -0.1775  0.9665
22060SOL     OW67620   6.744   7.952   3.226  0.4737 -0.0015 -0.2559
22060SOL    HW167621   6.756   8.011   3.300  1.7875  1.3537 -1.4703
22060SOL    HW267622   6.688   7.882   3.259  2.2646 -0.3023  2.4739
22061SOL     OW67623   6.505   5.853   3.529  0.2362 -0.2757  0.4983
22061SOL    HW167624   6.457   5.789   3.582  1.0821  0.6704  2.4872
22061SOL    HW267625   6.444   5.926   3.519  0.2344 -0.2650  0.5831
22062SOL     OW67626   6.757   7.425   3.793 -0.0867 -0.5341 -0.5348
22062SOL    HW167627   6.722   7.485   3.728  0.2400 -1.2917 -1.4302
22062SOL    HW267628   6.732   7.338   3.762  1.4687 -1.0144 -0.5354
22063SOL     OW67629   5.206   5.185   3.531  0.7220  0.2028  0.0174
22063SOL    HW167630   5.200   5.160   3.438 -1.4416  0.4326  0.0443
22063SOL    HW267631   5.176   5.275   3.533  1.4463  0.4368  0.8837
22064SOL     OW67632   7.682   7.775   3.068 -0.2658  0.2347 -0.0696
22064SOL    HW167633   7.675   7.868   3.089  1.7721  0.1893  1.1949
22064SOL    HW267634   7.636   7.731   3.139 -0.3003  0.2625 -0.0747
22065SOL     OW67635   7.691   7.059   2.642 -0.7403 -0.5928 -0.1145
22065SOL    HW167636   7.786   7.049   2.633 -0.9991 -2.6364 -1.0680
22065SOL    HW267637   7.655   6.975   2.613 -2.8502  0.1352  0.2371
22066SOL     OW67638   6.065   4.664   2.261 -0.3441  0.3802  0.3054
22066SOL    HW167639   6.064   4.758   2.279 -1.2383  0.2655  0.8749
22066SOL    HW267640   6.130   4.654   2.191  0.7118  1.2568  1.1255
22067SOL     OW67641   5.894   0.231   2.705 -0.4333  0.8229  0.6183
22067SOL    HW167642   5.881   0.257   2.613  0.0095  2.2256  0.9323
22067SOL    HW267643   5.967   0.169   2.702 -1.3359 -0.2480 -0.1205
22068SOL     OW67644   6.454   0.107   0.354 -0.2475  0.4441 -0.2854
22068SOL    HW167645   6.466   0.020   0.316 -0.1191  0.3059  0.0732
22068SOL    HW267646   6.361   0.126   0.341 -0.0252  0.7961 -1.5209
22069SOL     OW67647   5.891   4.716   0.895 -0.2505 -0.7717 -0.1480
22069SOL    HW167648   5.818   4.715   0.834  0.9633  0.0297 -1.6689
22069SOL    HW267649   5.892   4.806   0.930  3.0789  1.0451 -4.1451
22070SOL     OW67650   7.531   7.599   3.441 -0.2669 -0.0670  0.0311
22070SOL    HW167651   7.586   7.551   3.503 -0.1874 -0.2359 -0.1671
22070SOL    HW267652   7.577   7.681   3.426 -1.0354  0.6385  1.3530
22071SOL     OW67653   6.510   7.717   4.268  0.8906 -0.2506 -0.9618
22071SOL    HW167654   6.567   7.793   4.252 -0.1956  1.0712  1.0512
22071SOL    HW267655   6.564   7.642   4.244  3.2667  0.9714  0.1879
22072SOL     OW67656   6.284   6.216   3.805 -0.2042  0.5795 -0.2920
22072SOL    HW167657   6.336   6.136   3.809 -0.5660  0.3736  0.4971
22072SOL    HW267658   6.243   6.214   3.718  0.7365  0.5253 -0.7519
22073SOL     OW67659   6.667   6.722   1.927 -0.8073  0.0662 -0.5468
22073SOL    HW167660   6.587   6.762   1.960 -0.7239  0.8469 -1.2356
22073SOL    HW267661   6.729   6.795   1.920 -0.2214 -0.4254 -0.5569
22074SOL     OW67662   7.047   7.084   4.020 -0.1847 -0.0407  0.3138
22074SOL    HW167663   6.972   7.033   3.991  1.0527 -0.3335 -2.6278
22074SOL    HW267664   7.110   7.020   4.052  0.6471 -0.3086 -1.7036
22075SOL     OW67665   7.442   7.250   3.765 -0.0289  0.0330 -0.2921
22075SOL    HW167666   7.351   7.224   3.776  0.1534 -0.5126 -0.0435
22075SOL    HW267667   7.442   7.306   3.687 -0.3849 -0.9293 -1.0071
22076SOL     OW67668   7.121   5.498   2.874  0.1063  0.0813  0.2074
22076SOL    HW167669   7.032   5.467   2.861  0.1567 -0.0988  0.2839
22076SOL    HW267670   7.113   5.565   2.941 -0.0650  0.5501 -0.2780
22077SOL     OW67671   7.765   6.621   4.042 -0.2045 -0.2773 -0.7193
22077SOL    HW167672   7.690   6.561   4.041 -0.2545 -0.2582 -2.6294
22077SOL    HW267673   7.727   6.707   4.025 -0.0459  0.2323  1.2578
22078SOL     OW67674   1.491   0.167   3.911  0.4646  0.2143  0.0151
22078SOL    HW167675   1.466   0.244   3.962  0.4961 -0.3856  0.9460
22078SOL    HW267676   1.476   0.193   3.820  0.4736  1.3205  0.3159
22079SOL     OW67677   7.773   7.508   2.541  0.1537  0.0349 -0.1320
22079SOL    HW167678   7.792   7.594   2.503 -2.8494  0.5923 -0.6654
22079SOL    HW267679   7.827   7.447   2.491  1.2257  1.4344 -0.7594
22080SOL     OW67680   6.475   6.125   3.213 -0.0031  0.5190 -0.6222
22080SOL    HW167681   6.550   6.168   3.252  0.3750  0.3906 -1.1992
22080SOL    HW267682   6.430   6.193   3.163  0.3011  0.3695 -1.1051
22081SOL     OW67683   0.742   5.433   2.309  0.2902  0.2338 -0.3909
22081SOL    HW167684   0.754   5.527   2.317  1.9826  0.0795 -0.8346
22081SOL    HW267685   0.784   5.397   2.387 -1.2732 -0.1300  0.3291
22082SOL     OW67686   7.323   6.648   5.707 -0.0724  0.0386 -0.5232
22082SOL    HW167687   7.253   6.713   5.718  0.4557  0.9441 -2.1454
22082SOL    HW267688   7.371   6.678   5.630  1.2728 -1.3328 -0.2577
22083SOL     OW67689   5.456   6.495   1.061  0.1554  0.2486  0.2417
22083SOL    HW167690   5.433   6.519   1.151  0.4963  0.2879  0.3207
22083SOL    HW267691   5.462   6.400   1.062 -0.8867  0.1672  0.0030
22084SOL     OW67692   7.621   7.970   2.240  0.3568 -0.1511  0.2652
22084SOL    HW167693   7.681   7.919   2.185 -0.7792 -0.5020 -0.6655
22084SOL    HW267694   7.625   8.059   2.205 -1.9891 -0.7885 -1.8700
22085SOL     OW67695   6.622   0.032   5.283 -0.4005  0.1589 -0.3011
22085SOL    HW167696   6.583  -0.055   5.278 -1.1231  0.3970  0.7436
22085SOL    HW267697   6.716   0.017   5.293 -0.7839 -0.6450  3.1745
22086SOL     OW67698   7.988   7.603   2.733 -0.5257  0.4647 -0.1201
22086SOL    HW167699   8.082   7.612   2.722 -0.1183 -0.0222  2.3642
22086SOL    HW267700   7.964   7.531   2.674  0.9760 -0.5733  0.4808
22087SOL     OW67701   6.007   6.933   1.516 -0.2603 -0.1487  0.1945
22087SOL    HW167702   6.054   7.009   1.550 -0.6273 -0.0251  0.4302
22087SOL    HW267703   5.964   6.894   1.593 -4.3895  2.3864 -0.4748
22088SOL     OW67704   6.862   6.909   0.230  0.5794  0.0783  0.3287
22088SOL    HW167705   6.891   6.856   0.156  1.0423  0.6504  0.0935
22088SOL    HW267706   6.916   6.988   0.226  0.5368  0.1663  1.2131
22089SOL     OW67707   7.408   0.418   3.407 -0.1620 -0.1605 -0.5579
22089SOL    HW167708   7.455   0.500   3.424 -1.6651  0.2518  2.2405
22089SOL    HW267709   7.439   0.358   3.475 -1.4354 -0.8582 -0.5511
22090SOL     OW67710   7.897   6.574   2.334  0.0739  0.2038  0.1394
22090SOL    HW167711   7.962   6.632   2.373  1.0651 -0.5646 -0.3343
22090SOL    HW267712   7.846   6.543   2.409  1.9129 -1.2078  0.8915
22091SOL     OW67713   7.782   0.652   4.946  0.4457 -0.0571 -0.2781
22091SOL    HW167714   7.774   0.648   5.041  0.2762  0.8769 -0.2501
22091SOL    HW267715   7.842   0.580   4.924 -0.1864 -0.8335  0.4442
22092SOL     OW67716   6.288   6.557   3.330 -0.1437 -0.6062  0.3358
22092SOL    HW167717   6.357   6.509   3.377  2.7551  1.2275 -1.7212
22092SOL    HW267718   6.234   6.595   3.399  0.7455 -2.2857  2.0552
22093SOL     OW67719   7.454   7.797   4.768 -0.8476  0.0865  0.5852
22093SOL    HW167720   7.414   7.830   4.688 -0.6984 -0.7654  0.1516
22093SOL    HW267721   7.390   7.737   4.805 -0.4914 -0.3274  0.5425
22094SOL     OW67722   7.348   0.642   5.006  0.2460 -0.3870  0.1830
22094SOL    HW167723   7.286   0.701   4.962  0.0208 -0.1745  0.7717
22094SOL    HW267724   7.384   0.695   5.078 -0.3990 -1.1485  1.0814
22095SOL     OW67725   7.706   7.486   2.808 -0.5940 -0.0996 -0.4060
22095SOL    HW167726   7.731   7.397   2.833  0.3851  0.4368  0.6039
22095SOL    HW267727   7.712   7.487   2.713  0.7328 -0.7357 -0.3427
22096SOL     OW67728   7.780   5.410   2.246 -0.0926  0.0224 -0.3040
22096SOL    HW167729   7.873   5.391   2.233  0.1208  0.3241  0.6760
22096SOL    HW267730   7.748   5.339   2.302 -0.5339 -0.2554 -0.9016
22097SOL     OW67731   6.723   7.471   4.455 -0.2795  0.2129 -0.0275
22097SOL    HW167732   6.712   7.377   4.441  3.7258 -0.5288  0.6749
22097SOL    HW267733   6.714   7.509   4.367 -1.4809 -0.8189 -0.3898
22098SOL     OW67734   5.041   7.203   3.390 -0.7150 -0.1189 -0.0779
22098SOL    HW167735   5.099   7.184   3.464  0.3534 -1.2957 -1.1605
22098SOL    HW267736   5.100   7.213   3.316 -1.7667  1.1040 -0.7870
22099SOL     OW67737   6.206   7.462   1.574  0.1925  0.6750 -0.3561
22099SOL    HW167738   6.296   7.484   1.551  0.2450  2.4235  1.2574
22099SOL    HW267739   6.168   7.545   1.605 -1.5419 -0.3140  0.3129
22100SOL     OW67740   6.469   6.236  12.146  0.4254  0.1218  0.5734
22100SOL    HW167741   6.467   6.204  12.055  2.4868  1.4814 -0.0203
22100SOL    HW267742   6.412   6.313  12.145  0.3810  0.0890  0.4610
22101SOL     OW67743   6.597   5.392   3.034  0.0135 -0.3632  0.6550
22101SOL    HW167744   6.690   5.411   3.023  0.1087 -0.1618  1.7040
22101SOL    HW267745   6.586   5.306   2.995  0.2526  0.3642 -1.1404
22102SOL     OW67746   4.484   6.752   1.970  0.1142  0.0151  0.7164
22102SOL    HW167747   4.395   6.777   1.994 -0.3960 -0.8342 -0.1890
22102SOL    HW267748   4.539   6.820   2.008 -1.0341  1.3435  0.1226
22103SOL     OW67749   6.218   6.296   2.477  0.8643  0.0989  0.0596
22103SOL    HW167750   6.238   6.234   2.407  1.2490 -0.5844  0.7612
22103SOL    HW267751   6.234   6.382   2.439  1.0636 -0.2668 -0.6908
22104SOL     OW67752   6.811   6.287   2.449 -0.0073  0.7075  0.5616
22104SOL    HW167753   6.882   6.318   2.506 -0.9410  1.5067  1.3146
22104SOL    HW267754   6.757   6.232   2.506  0.8005 -1.1658 -0.3835
22105SOL     OW67755   5.164   7.984   2.997 -0.1529  0.1481 -0.0127
22105SOL    HW167756   5.176   7.979   3.092  1.0165  1.2824 -0.0551
22105SOL    HW267757   5.202   7.903   2.963 -1.5403 -0.7648  0.5255
22106SOL     OW67758   5.524   1.147   3.219  0.1473  0.2508  0.4257
22106SOL    HW167759   5.564   1.062   3.239  0.4218 -0.6266 -3.1918
22106SOL    HW267760   5.560   1.206   3.286  2.9399 -1.6963  0.8337
22107SOL     OW67761   4.028   7.175   2.390 -0.2488  0.0807  0.2301
22107SOL    HW167762   4.001   7.097   2.437 -1.5109  0.6381  0.4697
22107SOL    HW267763   4.073   7.228   2.456 -2.3547  1.0365  0.9929
22108SOL     OW67764   6.899   0.253   3.835 -0.4292  0.1314  0.0204
22108SOL    HW167765   6.822   0.300   3.802 -1.3737 -2.2023 -1.2798
22108SOL    HW267766   6.863   0.178   3.882  0.9901 -2.0088 -2.1280
22109SOL     OW67767   5.821   5.788   0.612  0.2866 -0.2363 -0.5150
22109SOL    HW167768   5.806   5.879   0.639 -0.2294 -0.7248  0.9428
22109SOL    HW267769   5.752   5.739   0.656  0.9771 -1.4180 -0.7216
22110SOL     OW67770   5.233   5.653   1.494  0.0345  0.1557  0.0114
22110SOL    HW167771   5.221   5.588   1.425  2.1531 -1.0426  0.6704
22110SOL    HW267772   5.223   5.604   1.576 -2.0096  1.4672  0.6336
22111SOL     OW67773   4.788   6.632   1.010  0.4667 -0.0125 -0.3971
22111SOL    HW167774   4.861   6.618   0.950  1.3747 -1.5775  0.9779
22111SOL    HW267775   4.718   6.577   0.977  1.0500 -1.0706  0.0994
22112SOL     OW67776   5.540   6.754   0.350 -0.2327 -0.3995 -0.1014
22112SOL    HW167777   5.483   6.737   0.424  1.5111 -1.1780  1.1242
22112SOL    HW267778   5.603   6.819   0.382 -1.0251  1.2617 -1.7511
22113SOL     OW67779   6.950   5.512   1.490 -0.1002 -0.6074 -0.3270
22113SOL    HW167780   6.876   5.452   1.500 -0.1969 -0.4974 -0.3731
22113SOL    HW267781   6.944   5.542   1.399 -0.8677  0.5281  0.0654
22114SOL     OW67782   1.131   0.704   2.633  0.0200 -0.1995  0.7293
22114SOL    HW167783   1.177   0.788   2.637 -0.8118  0.2377  1.5656
22114SOL    HW267784   1.048   0.724   2.591  1.6193 -1.5246 -3.5723
22115SOL     OW67785   0.869   6.424   3.036 -0.3008  0.7217  0.2878
22115SOL    HW167786   0.895   6.515   3.023  0.1511  0.5772  0.1233
22115SOL    HW267787   0.938   6.387   3.091  0.7998 -0.1122 -1.5617
22116SOL     OW67788   7.881   5.851   2.492  0.2946 -0.1717 -1.3100
22116SOL    HW167789   7.946   5.898   2.545 -0.5163  0.7794 -1.1299
22116SOL    HW267790   7.798   5.867   2.537  0.1750 -3.1861 -0.2742
22117SOL     OW67791   5.839   7.061   3.479  0.3695 -0.7807 -0.2586
22117SOL    HW167792   5.756   7.022   3.505  0.7410 -1.8952 -0.6914
22117SOL    HW267793   5.896   7.049   3.555  0.4153 -0.8803 -0.3083
22118SOL     OW67794   7.742   0.428   2.462  0.0774  0.6698 -0.0459
22118SOL    HW167795   7.724   0.472   2.379  1.6192 -0.1420 -0.8602
22118SOL    HW267796   7.673   0.458   2.521 -0.9586  1.3978 -1.5645
22119SOL     OW67797   7.412   7.603   1.909  0.7701 -0.9366  0.4748
22119SOL    HW167798   7.363   7.526   1.939  0.1093 -0.5870  0.3259
22119SOL    HW267799   7.420   7.658   1.987 -1.3441  0.1802 -0.0198
22120SOL     OW67800   6.440   4.584   1.871 -0.0605  0.1088  0.5229
22120SOL    HW167801   6.490   4.589   1.789  0.2925  1.0880  0.7822
22120SOL    HW267802   6.426   4.490   1.884  1.9689 -0.2333  0.5834
22121SOL     OW67803   5.777   1.105   4.877  0.3614  0.0615  0.2146
22121SOL    HW167804   5.853   1.086   4.932  0.1919  0.7452  0.6987
22121SOL    HW267805   5.764   1.025   4.826  2.1848  0.3569 -0.8201
22122SOL     OW67806   7.705   0.278   5.084 -0.4505  0.2068  0.0926
22122SOL    HW167807   7.630   0.324   5.121 -0.9684  0.0839 -0.7709
22122SOL    HW267808   7.710   0.309   4.993  0.1359 -0.2753 -0.0453
22123SOL     OW67809   7.039   6.758   1.801  0.1924 -0.3057  0.9594
22123SOL    HW167810   6.953   6.798   1.812 -0.0519 -0.7979  0.8515
22123SOL    HW267811   7.080   6.808   1.730 -1.2446 -2.0712 -1.2606
22124SOL     OW67812   0.539   7.407   4.028  0.4354 -0.2891 -0.4730
22124SOL    HW167813   0.548   7.478   4.091  0.0121 -0.0071 -0.7329
22124SOL    HW267814   0.493   7.338   4.076 -0.8081  0.3148 -0.7793
22125SOL     OW67815   6.995   3.321   0.154  0.1536 -0.1398 -0.4004
22125SOL    HW167816   7.068   3.291   0.099  1.0790 -0.7225  1.0669
22125SOL    HW267817   7.033   3.393   0.205 -0.4580 -0.1270  0.0371
22126SOL     OW67818   7.113   6.561   3.604 -0.3930  0.5311  0.3671
22126SOL    HW167819   7.126   6.647   3.564  2.7458  0.5624  1.2150
22126SOL    HW267820   7.130   6.499   3.533  1.9936  0.6312  0.7690
22127SOL     OW67821   5.931   6.641   1.400  0.0303 -0.2159  0.6750
22127SOL    HW167822   5.990   6.604   1.466  0.8939  0.3332  0.2182
22127SOL    HW267823   5.960   6.731   1.390 -0.9620  0.0969  0.5162
22128SOL     OW67824   7.120   6.909   3.161 -0.2244 -0.4444  0.0525
22128SOL    HW167825   7.057   6.962   3.210  0.3391 -1.1092  1.5304
22128SOL    HW267826   7.202   6.916   3.210  0.8056  0.1432 -1.6670
22129SOL     OW67827   0.239   0.212   3.555 -0.1816 -0.1273 -0.4648
22129SOL    HW167828   0.321   0.161   3.552  2.5263  3.7185  0.3751
22129SOL    HW267829   0.176   0.158   3.507  3.5599 -2.1459 -3.7406
22130SOL     OW67830   5.724   6.948   3.023  0.2379  0.4663  0.0577
22130SOL    HW167831   5.734   7.024   2.965  1.8173 -0.9536 -1.6041
22130SOL    HW267832   5.669   6.887   2.974  2.9736 -1.4778 -0.8388
22131SOL     OW67833   6.524   6.651   3.157 -0.3937  0.0199  0.4134
22131SOL    HW167834   6.557   6.569   3.121 -0.8371  0.8318 -2.0109
22131SOL    HW267835   6.454   6.624   3.217  0.7756 -1.4180  1.1857
22132SOL     OW67836   6.728   4.842   4.915 -0.0716 -0.5646 -0.7412
22132SOL    HW167837   6.761   4.768   4.865 -0.0071 -1.3230  0.3953
22132SOL    HW267838   6.637   4.819   4.936 -0.2705 -0.0088 -0.9570
22133SOL     OW67839   7.478   0.008   2.934  0.0414  0.0433  0.1106
22133SOL    HW167840   7.537   0.028   2.862  0.6899 -0.1354  0.5785
22133SOL    HW267841   7.473   0.089   2.985 -1.1444  0.4536 -0.6255
22134SOL     OW67842   6.689   6.025   5.388  0.1421 -0.1945 -0.6706
22134SOL    HW167843   6.656   5.974   5.463 -0.2998  1.0008 -0.0260
22134SOL    HW267844   6.622   6.091   5.373  1.4097  1.1944 -0.4541
22135SOL     OW67845   7.181   7.373   2.485  0.1134  0.3169  0.4696
22135SOL    HW167846   7.183   7.468   2.495 -0.6327  0.4679 -0.6454
22135SOL    HW267847   7.094   7.354   2.449  0.2118 -0.7949  0.7775
22136SOL     OW67848   7.217   0.834   4.368 -0.1110  0.1439  0.0456
22136SOL    HW167849   7.189   0.744   4.385 -0.7546  0.4514  0.6571
22136SOL    HW267850   7.208   0.843   4.273  1.6820 -0.9838 -0.2733
22137SOL     OW67851   6.261   7.589   3.040  0.3590  0.6063 -0.4811
22137SOL    HW167852   6.353   7.614   3.044  0.6446 -0.5259  0.6642
22137SOL    HW267853   6.219   7.640   3.109  0.4994 -0.2127  0.2382
22138SOL     OW67854   7.122   6.956   2.118  0.1357 -0.2335 -0.6350
22138SOL    HW167855   7.086   7.024   2.175  1.0757  0.7568 -1.1847
22138SOL    HW267856   7.124   6.996   2.031  0.2657 -1.1382 -1.0627
22139SOL     OW67857   6.872   7.040   4.275  0.1738  0.2352 -0.3618
22139SOL    HW167858   6.891   6.970   4.338 -2.4589 -0.7499 -0.5113
22139SOL    HW267859   6.956   7.058   4.233  1.7532 -0.0215  2.4245
22140SOL     OW67860   5.563   5.383   4.595  0.1960  0.0234 -0.1332
22140SOL    HW167861   5.567   5.452   4.529  0.5691 -2.1640 -2.5384
22140SOL    HW267862   5.654   5.372   4.623  0.2412  0.0021 -0.2876
22141SOL     OW67863   6.836   1.413   3.780 -0.8386 -0.4079  0.1879
22141SOL    HW167864   6.757   1.383   3.824 -0.6480  1.1776  1.6922
22141SOL    HW267865   6.810   1.494   3.736 -0.9769 -1.8345 -2.5791
22142SOL     OW67866   7.293   7.262   2.274 -0.1130 -0.5202  0.9090
22142SOL    HW167867   7.215   7.285   2.324  1.2538  1.1352  2.3915
22142SOL    HW267868   7.354   7.227   2.340  0.9245 -0.4099  0.0332
22143SOL     OW67869   6.373   6.070   0.571  0.4620  0.7214  0.2553
22143SOL    HW167870   6.411   6.158   0.569 -1.0295  1.4153  0.9569
22143SOL    HW267871   6.395   6.036   0.658  1.1963  0.3116 -0.0825
22144SOL     OW67872   4.636   7.127   3.411 -0.2102 -0.6218 -0.0999
22144SOL    HW167873   4.691   7.175   3.349 -1.6244 -1.0386 -1.7769
22144SOL    HW267874   4.573   7.192   3.442 -0.7012 -0.8315 -0.6229
22145SOL     OW67875   4.725   7.390   1.508 -0.2453 -0.5512 -0.0920
22145SOL    HW167876   4.758   7.422   1.424 -1.9008 -0.7985 -0.8804
22145SOL    HW267877   4.650   7.446   1.527  0.7273  0.2113  1.8060
22146SOL     OW67878   6.683   6.465   1.914 -0.0663 -0.1703 -0.3469
22146SOL    HW167879   6.766   6.449   1.868  0.9679 -0.8112  1.5945
22146SOL    HW267880   6.669   6.559   1.907 -0.0703 -0.2710 -2.0911
22147SOL     OW67881   7.720   4.694   5.002 -0.0914  0.1046 -0.2100
22147SOL    HW167882   7.793   4.671   5.059  0.7282  3.9211  0.5512
22147SOL    HW267883   7.661   4.618   5.006  2.3392 -1.8531  1.5779
22148SOL     OW67884   4.040   6.946   1.134 -0.8032 -0.3287 -0.2171
22148SOL    HW167885   4.039   6.863   1.086  0.1883  0.0954 -1.0216
22148SOL    HW267886   3.983   7.004   1.082  0.1091  0.0711 -0.7918
22149SOL     OW67887   0.324   0.158   3.907 -0.2174  0.2584  0.2562
22149SOL    HW167888   0.323   0.149   3.812  0.4194 -2.6428  0.4090
22149SOL    HW267889   0.250   0.105   3.937  0.4149 -0.0174  1.4005
22150SOL     OW67890   0.287   6.728   3.392 -0.1832  0.7198  0.2841
22150SOL    HW167891   0.210   6.738   3.448 -1.0893  1.5309 -1.0578
22150SOL    HW267892   0.304   6.634   3.392 -1.1669  0.5266  0.6124
22151SOL     OW67893   6.821   1.541   4.341 -0.1271 -0.3066 -0.4242
22151SOL    HW167894   6.799   1.449   4.328  2.8182 -1.3458  0.9432
22151SOL    HW267895   6.843   1.548   4.434  0.0413  1.7160 -0.5681
22152SOL     OW67896   0.374   7.336   3.580 -0.9164 -0.4000 -0.2834
22152SOL    HW167897   0.424   7.377   3.650 -0.4677  2.5887 -2.1925
22152SOL    HW267898   0.423   7.257   3.558  0.5013  0.1309  0.8543
22153SOL     OW67899   0.726   6.524   4.575 -0.5730  0.3866 -0.3921
22153SOL    HW167900   0.638   6.491   4.559  0.0234 -0.5348 -1.9961
22153SOL    HW267901   0.731   6.605   4.523 -0.4786  0.4480 -0.2876
22154SOL     OW67902   6.136   6.500   2.732 -0.3121  0.1762 -0.3088
22154SOL    HW167903   6.075   6.432   2.706  0.8543 -0.6883 -0.8806
22154SOL    HW267904   6.135   6.563   2.660  2.2430 -1.7630 -2.2596
22155SOL     OW67905   7.055   6.917   1.567  0.9100  0.3204  0.5361
22155SOL    HW167906   7.052   6.992   1.627  1.4320  0.5362  0.2893
22155SOL    HW267907   7.080   6.955   1.483  1.1415 -0.1266  0.4052
22156SOL     OW67908   6.376   7.266   2.461  0.3210  0.2205  0.2723
22156SOL    HW167909   6.318   7.310   2.522  1.5275  1.7695  0.3743
22156SOL    HW267910   6.452   7.241   2.513  2.2838  3.3074 -0.7500
22157SOL     OW67911   6.060   7.857   2.540  0.5773 -0.1440 -0.2399
22157SOL    HW167912   6.059   7.815   2.454 -0.2000  0.8298 -0.7194
22157SOL    HW267913   6.140   7.909   2.540  0.0271  0.7431 -0.8383
22158SOL     OW67914   6.973   5.611   1.233  0.0661 -0.2619  0.0088
22158SOL    HW167915   6.935   5.530   1.200 -0.3546  0.3195 -0.9722
22158SOL    HW267916   7.068   5.596   1.228 -0.0087 -0.7284 -0.0777
22159SOL     OW67917   5.971   6.623   2.036 -0.2033 -0.4057  0.0157
22159SOL    HW167918   5.879   6.595   2.041  0.0126 -1.2418 -0.4628
22159SOL    HW267919   6.018   6.545   2.006  0.4940  0.3570 -0.9358
22160SOL     OW67920   5.949   5.873   1.984 -0.1650  0.2456 -0.3922
22160SOL    HW167921   5.919   5.907   2.068  1.9428 -0.2540  0.6323
22160SOL    HW267922   5.878   5.815   1.955 -0.1083 -1.2320  2.1128
22161SOL     OW67923   5.369   6.492   2.546  0.1469  0.1528  0.1161
22161SOL    HW167924   5.387   6.440   2.468 -0.0439  2.2934 -1.4530
22161SOL    HW267925   5.456   6.520   2.576  0.2306 -0.8021  0.7886
22162SOL     OW67926   6.284   0.318   1.760  0.3158 -0.6216 -0.4671
22162SOL    HW167927   6.343   0.386   1.790 -0.1961 -0.4990  0.2786
22162SOL    HW267928   6.214   0.364   1.713  1.2358 -0.8264 -2.1252
22163SOL     OW67929   5.887   1.684   1.857 -0.4263  0.0117 -0.1238
22163SOL    HW167930   5.796   1.654   1.863  0.2303 -1.9897  0.2581
22163SOL    HW267931   5.924   1.667   1.943  0.4372  0.4533 -0.3983
22164SOL     OW67932   7.442   0.473   3.131  0.2423 -0.1418 -0.0559
22164SOL    HW167933   7.471   0.563   3.142 -2.1356  0.6129  0.6234
22164SOL    HW267934   7.420   0.444   3.219  0.0793 -1.0526 -0.3852
22165SOL     OW67935   6.243   7.889   2.013 -0.3316  0.3347  0.6536
22165SOL    HW167936   6.324   7.929   2.043  0.7046 -0.0264 -1.4677
22165SOL    HW267937   6.268   7.801   1.986 -0.7628  1.0371 -2.4690
22166SOL     OW67938   6.448   5.224   3.657  0.1127 -0.6051  0.0492
22166SOL    HW167939   6.406   5.159   3.600  0.2342  0.2011 -0.9937
22166SOL    HW267940   6.531   5.244   3.612 -0.0249  0.4205  0.2437
22167SOL     OW67941   6.809   6.346   3.986 -0.2646  0.5671  0.0628
22167SOL    HW167942   6.872   6.301   4.042  0.6786  1.9393  0.1300
22167SOL    HW267943   6.851   6.428   3.962 -1.4804  0.9155 -1.0110
22168SOL     OW67944   6.198   4.845   2.553 -0.0422  0.6778 -0.1082
22168SOL    HW167945   6.157   4.768   2.514  0.4059 -0.3781  1.4002
22168SOL    HW267946   6.151   4.919   2.516 -0.6049 -0.3220 -1.4680
22169SOL     OW67947   6.885   0.319   3.355  0.7957 -0.0610 -0.3126
22169SOL    HW167948   6.907   0.350   3.267 -1.8041  0.6047 -0.8272
22169SOL    HW267949   6.895   0.396   3.410 -2.3471  0.9825 -0.9938
22170SOL     OW67950   5.060   7.309   2.471 -0.4486 -0.4747 -0.3053
22170SOL    HW167951   5.134   7.364   2.496 -0.2856 -0.6216 -0.4628
22170SOL    HW267952   5.055   7.318   2.376 -0.1289 -1.1020 -0.3849
22171SOL     OW67953   7.430   7.301   5.557  1.2500 -0.2625  0.2913
22171SOL    HW167954   7.357   7.302   5.619  1.3543  1.6386  0.4389
22171SOL    HW267955   7.403   7.239   5.489 -0.5856  0.5162  0.2620
22172SOL     OW67956   0.205   7.692   5.275  0.1118  0.1156 -0.0554
22172SOL    HW167957   0.298   7.693   5.250 -0.2168  1.0568 -1.3283
22172SOL    HW267958   0.193   7.607   5.317  1.7534  0.3206  0.9553
22173SOL     OW67959   5.594   6.677   0.885 -0.4206 -0.0158  0.3069
22173SOL    HW167960   5.663   6.712   0.942  0.4225  0.0647 -0.7386
22173SOL    HW267961   5.547   6.615   0.940  0.4443 -0.0195  1.0622
22174SOL     OW67962   6.943   1.170   3.438 -0.1724 -0.3313 -0.0159
22174SOL    HW167963   6.990   1.086   3.441 -1.5237 -1.1030  1.5406
22174SOL    HW267964   6.958   1.209   3.525  0.5324  1.1364 -0.7603
22175SOL     OW67965   5.851   5.489   3.470 -0.1429  0.2918 -0.1215
22175SOL    HW167966   5.832   5.500   3.563 -1.4811 -0.2917 -0.2941
22175SOL    HW267967   5.837   5.576   3.432 -0.5432  0.3146  0.0777
22176SOL     OW67968   7.538   7.458   2.307  0.2707  0.7078 -0.1347
22176SOL    HW167969   7.569   7.439   2.395 -0.9166 -1.0396 -0.0347
22176SOL    HW267970   7.514   7.372   2.271  1.2042  1.3001 -2.3599
22177SOL     OW67971   7.838   6.735   2.873  0.7618 -0.0620 -0.1112
22177SOL    HW167972   7.864   6.825   2.891  1.2739 -0.5366  1.7030
22177SOL    HW267973   7.761   6.721   2.929 -0.9464  0.0257 -2.3149
22178SOL     OW67974   5.500   7.642   4.057 -0.4326 -0.0437 -0.0988
22178SOL    HW167975   5.461   7.555   4.051  0.0727 -0.3258  0.4816
22178SOL    HW267976   5.583   7.627   4.102 -0.2895  0.7273 -0.0946
22179SOL     OW67977   5.169   6.459   1.934 -0.0920  0.0246 -0.5065
22179SOL    HW167978   5.246   6.515   1.938 -0.6959  0.9386 -1.3092
22179SOL    HW267979   5.103   6.506   1.986 -0.8109  0.4282 -1.7411
22180SOL     OW67980   5.977   7.077   2.377 -0.5057  0.3591  0.6082
22180SOL    HW167981   5.977   7.095   2.283 -0.4560 -2.9743 -0.1719
22180SOL    HW267982   6.069   7.057   2.397 -0.7865 -0.6050  0.9711
22181SOL     OW67983   6.449   6.975   3.171 -0.0956  0.1342 -0.5624
22181SOL    HW167984   6.493   7.054   3.141  0.3492 -0.1315 -0.6082
22181SOL    HW267985   6.515   6.907   3.165 -0.6962 -0.3960 -1.2246
22182SOL     OW67986   5.627   7.303   4.619  0.0098 -0.0846 -0.0655
22182SOL    HW167987   5.706   7.282   4.568  0.0001 -0.6732  0.1607
22182SOL    HW267988   5.558   7.310   4.553 -0.1509 -1.5773 -0.0774
22183SOL     OW67989   5.953   7.951   0.561 -0.7805 -0.1031 -0.5177
22183SOL    HW167990   5.987   7.964   0.472 -0.3193  0.4538 -0.2619
22183SOL    HW267991   5.902   8.030   0.579 -0.4144  0.0372 -0.0813
22184SOL     OW67992   5.513   5.436   1.629  0.2243 -0.2038 -0.5595
22184SOL    HW167993   5.465   5.367   1.584 -1.9193 -0.1766  1.4912
22184SOL    HW267994   5.605   5.422   1.604 -0.6902 -0.6556 -4.1129
22185SOL     OW67995   5.184   7.735   1.496  0.5343  0.1831 -0.3156
22185SOL    HW167996   5.190   7.689   1.412 -3.6803 -0.0513 -0.6732
22185SOL    HW267997   5.206   7.826   1.475  3.2248 -0.4864 -0.7799
22186SOL     OW67998   0.022   6.372   5.055  0.3993 -0.2455  0.7143
22186SOL    HW167999   0.040   6.430   5.129 -1.2677  0.4650  0.6187
22186SOL    HW268000   0.049   6.422   4.978  0.6935 -0.3630  0.7386
22187SOL     OW68001   6.285   5.754   3.712  0.3708 -0.0942 -0.2178
22187SOL    HW168002   6.243   5.750   3.626 -0.8787 -0.5441  0.3927
22187SOL    HW268003   6.312   5.663   3.730 -0.5326 -0.2545  0.4062
22188SOL     OW68004   5.094   5.897   1.486  0.3463 -0.7286 -0.0842
22188SOL    HW168005   5.170   5.839   1.481  0.8623 -0.2001  1.2780
22188SOL    HW268006   5.050   5.885   1.402  2.0102 -0.9332 -0.9682
22189SOL     OW68007   5.989   6.828  11.861  0.3192 -0.5287  0.6820
22189SOL    HW168008   5.909   6.868  11.826  0.6889  0.5350  1.0144
22189SOL    HW268009   6.059   6.857  11.803  0.3240 -2.4846 -0.3539
22190SOL     OW68010   5.733   0.668   2.669  0.3776 -0.1365 -0.8076
22190SOL    HW168011   5.770   0.614   2.739 -1.0369 -2.3020 -1.6695
22190SOL    HW268012   5.705   0.748   2.714 -0.1109 -1.2945  1.0401
22191SOL     OW68013   5.893   7.328   0.349 -0.4005  0.2217 -0.0754
22191SOL    HW168014   5.838   7.302   0.275 -0.5120  0.0479  0.0659
22191SOL    HW268015   5.837   7.386   0.401 -0.4236  0.1095  0.0260
22192SOL     OW68016   0.860   6.885   0.822 -0.2145 -0.1257  0.0177
22192SOL    HW168017   0.859   6.963   0.766 -0.6920 -0.4275 -0.4063
22192SOL    HW268018   0.780   6.892   0.874 -0.7669 -0.8235 -0.7192
22193SOL     OW68019   7.071   6.835   3.479  0.0611 -0.0760  0.0652
22193SOL    HW168020   7.027   6.912   3.514 -1.6757 -0.9703 -0.0215
22193SOL    HW268021   7.005   6.792   3.425  1.5350 -0.7093 -1.3143
22194SOL     OW68022   6.825   6.948   3.936  0.5813  0.1001  0.7384
22194SOL    HW168023   6.765   6.985   4.001 -0.4864 -0.7076  0.2441
22194SOL    HW268024   6.810   6.854   3.942 -0.2633  0.0595 -1.3412
22195SOL     OW68025   6.799   6.808   2.757  0.2657  0.1952  0.3994
22195SOL    HW168026   6.721   6.763   2.723  0.8682  0.4023 -1.3255
22195SOL    HW268027   6.817   6.763   2.840 -1.0925 -0.5161  0.3525
22196SOL     OW68028   6.916   6.470   3.348  0.5678  0.4537 -0.2040
22196SOL    HW168029   6.930   6.440   3.258  3.1648  0.2448  0.2167
22196SOL    HW268030   7.003   6.486   3.382 -0.3650  0.6130  2.2829
22197SOL     OW68031   6.668   6.015  11.752 -0.4837  0.4670  0.0025
22197SOL    HW168032   6.609   5.949  11.790 -2.2327  1.0525 -1.5351
22197SOL    HW268033   6.755   5.992  11.786 -1.2574 -1.7028  0.7047
22198SOL     OW68034   1.101   7.014   3.956  0.1728  0.5904 -0.5925
22198SOL    HW168035   1.076   6.922   3.943  1.1278  0.4134 -1.3218
22198SOL    HW268036   1.171   7.011   4.021 -1.0287  0.9959  0.7628
22199SOL     OW68037   5.786   5.320   2.416 -0.1193 -0.1263  0.1587
22199SOL    HW168038   5.834   5.378   2.356  1.0287 -2.0092 -0.8585
22199SOL    HW268039   5.720   5.280   2.361 -2.3414  1.6949  1.3366
22200SOL     OW68040   6.218   5.754   3.099 -0.1837  0.1400 -0.1137
22200SOL    HW168041   6.143   5.781   3.046  0.4240 -0.6372 -1.4200
22200SOL    HW268042   6.219   5.659   3.093  0.8658  0.1317 -0.0688
22201SOL     OW68043   4.161   4.652   2.390 -0.6127 -0.2458  0.2477
22201SOL    HW168044   4.203   4.736   2.408 -1.0857  0.2725 -0.9729
22201SOL    HW268045   4.230   4.598   2.352  0.0560 -0.9167  2.2754
22202SOL     OW68046   4.440   6.977   1.413  0.5595  0.1470  0.1444
22202SOL    HW168047   4.408   6.919   1.483 -1.0969 -0.3668 -0.9602
22202SOL    HW268048   4.522   6.937   1.385 -0.2273 -1.3653 -0.1565
22203SOL     OW68049   7.782   1.556   4.702 -0.3189 -0.0380  0.1784
22203SOL    HW168050   7.750   1.624   4.642 -0.4023  0.1651  0.4517
22203SOL    HW268051   7.860   1.521   4.659 -0.7605 -0.3650 -0.3745
22204SOL     OW68052   4.937   4.573   1.267  0.1594 -0.1399  0.2495
22204SOL    HW168053   4.903   4.630   1.335  0.0585  0.7175 -0.5049
22204SOL    HW268054   4.983   4.631   1.207  1.7919 -1.0947  0.5075
22205SOL     OW68055   6.174   7.550   0.833 -0.7785  0.3544  0.0650
22205SOL    HW168056   6.123   7.507   0.765 -0.7833 -0.9965  0.8832
22205SOL    HW268057   6.120   7.545   0.912  0.2994 -0.5102  0.7866
22206SOL     OW68058   6.452   5.969   3.826  0.3175 -0.4031 -0.4719
22206SOL    HW168059   6.398   5.895   3.798 -0.1673  0.4888 -1.9887
22206SOL    HW268060   6.443   5.970   3.921  1.1082 -2.8523 -0.2928
22207SOL     OW68061   0.079   6.866   4.008 -0.5924 -0.5634  0.4664
22207SOL    HW168062   0.034   6.951   4.012  0.3022 -0.1124  3.4643
22207SOL    HW268063   0.152   6.880   3.948 -0.4381  0.7952  0.9482
22208SOL     OW68064   7.039   7.677   3.922 -0.2352  0.4992  0.1753
22208SOL    HW168065   7.089   7.681   4.004 -0.4882  1.6529  0.2876
22208SOL    HW268066   7.103   7.699   3.854  0.3649 -1.9577 -0.1612
22209SOL     OW68067   0.144   7.218   3.717 -0.5344 -0.8094 -0.0622
22209SOL    HW168068   0.154   7.274   3.640  0.3077  0.0705  0.6606
22209SOL    HW268069   0.058   7.241   3.752 -0.3884 -0.2867 -0.0354
22210SOL     OW68070   0.021   6.649   4.131 -0.1608 -0.0289 -0.1303
22210SOL    HW168071  -0.074   6.637   4.121 -0.1532 -0.1770 -0.0345
22210SOL    HW268072   0.039   6.734   4.090 -0.7072  1.1556  1.9403
22211SOL     OW68073   5.191   6.376   2.727 -0.2413  0.4213  0.0004
22211SOL    HW168074   5.263   6.398   2.667 -0.1440  0.9684  0.3109
22211SOL    HW268075   5.118   6.353   2.670 -0.2009  1.1070 -0.3419
22212SOL     OW68076   7.968   0.548   4.492  0.2617 -0.0610 -0.1350
22212SOL    HW168077   7.952   0.562   4.399  1.8088  0.1547 -0.3882
22212SOL    HW268078   7.903   0.602   4.536 -0.5566 -0.2547 -1.0783
22213SOL     OW68079   7.349   0.486   4.550  0.7250  0.5829  0.1877
22213SOL    HW168080   7.313   0.397   4.547  0.1298  0.8387 -1.1952
22213SOL    HW268081   7.399   0.489   4.631  0.5262 -0.9266  0.3974
22214SOL     OW68082   6.150   6.580   0.990  0.3223  0.5321 -0.4752
22214SOL    HW168083   6.135   6.647   1.056  0.0513  1.1810 -1.1788
22214SOL    HW268084   6.189   6.507   1.038 -1.7820  0.1569  0.7923
22215SOL     OW68085   6.644   7.140   2.104  0.0596 -0.2238 -0.1783
22215SOL    HW168086   6.662   7.078   2.174  1.0192  0.7904  0.5022
22215SOL    HW268087   6.574   7.196   2.138 -1.4661 -1.4675 -1.1502
22216SOL     OW68088   6.002   7.449   3.340  0.2965 -0.1228  0.0108
22216SOL    HW168089   6.092   7.416   3.350 -0.4648 -2.6331 -0.5211
22216SOL    HW268090   5.962   7.433   3.425  0.4136  1.2758  0.3395
22217SOL     OW68091   6.494   6.559   1.682  0.6488 -0.4361 -0.0616
22217SOL    HW168092   6.462   6.504   1.753 -0.3549 -0.0232 -0.1802
22217SOL    HW268093   6.547   6.627   1.725  0.1539 -0.2682  0.2822
22218SOL     OW68094   0.129   0.884   2.413  0.8527 -0.0972 -0.0130
22218SOL    HW168095   0.114   0.797   2.374 -0.1401  0.8333 -1.8315
22218SOL    HW268096   0.042   0.918   2.429  1.2137  1.0207 -0.3695
22219SOL     OW68097   7.231   0.222   4.581 -0.7485  0.6492 -0.0847
22219SOL    HW168098   7.283   0.164   4.636 -0.2818  1.3589  0.2422
22219SOL    HW268099   7.160   0.167   4.548  0.5590 -0.5133 -1.0670
22220SOL     OW68100   6.247   7.033   2.444 -0.6966 -0.0900  0.4034
22220SOL    HW168101   6.284   6.981   2.515 -1.4261 -0.8103  0.2712
22220SOL    HW268102   6.286   7.120   2.454 -0.8745 -0.1516  1.7390
22221SOL     OW68103   6.047   6.419   2.994  0.1874  0.4315  0.5023
22221SOL    HW168104   6.049   6.323   2.995 -0.9794  0.3772 -0.5313
22221SOL    HW268105   6.050   6.442   2.901 -1.0938  1.3413  0.6620
22222SOL     OW68106   7.501   6.365   2.454 -0.0735 -0.0920 -0.3434
22222SOL    HW168107   7.480   6.441   2.509  0.6638 -0.0865 -0.0487
22222SOL    HW268108   7.432   6.363   2.388 -0.2903  0.6389 -0.1522
22223SOL     OW68109   0.082   0.050   3.963 -0.2808  0.6773 -0.6677
22223SOL    HW168110   0.098  -0.005   4.040 -0.3786  0.2039 -0.9778
22223SOL    HW268111  -0.006   0.084   3.975 -0.8732 -0.5846 -1.2701
22224SOL     OW68112   6.844   7.841   3.532 -0.4710  0.9693 -0.2632
22224SOL    HW168113   6.824   7.934   3.521 -1.3612  0.5554 -2.8084
22224SOL    HW268114   6.868   7.811   3.444  1.4096 -0.8810  0.7876
22225SOL     OW68115   4.767   6.749   1.997 -0.2603  0.3183 -0.3362
22225SOL    HW168116   4.729   6.725   1.913 -0.7685  1.4788 -0.4468
22225SOL    HW268117   4.838   6.685   2.010 -0.1054  0.1884 -1.6804
22226SOL     OW68118   6.868   0.710   2.678 -0.0696 -0.3340  0.0103
22226SOL    HW168119   6.852   0.792   2.633 -0.2611 -0.0487  0.5865
22226SOL    HW268120   6.943   0.671   2.633 -0.5396 -0.2730 -0.8357
22227SOL     OW68121   6.689   6.269   3.328  0.3057  0.8332 -0.0823
22227SOL    HW168122   6.717   6.326   3.256 -1.0545  2.2916  0.4860
22227SOL    HW268123   6.770   6.228   3.359  1.2597  2.0363 -0.8828
22228SOL     OW68124   0.305   6.119   4.243 -0.1261  0.4565 -0.2791
22228SOL    HW168125   0.239   6.088   4.305  0.0160  0.9563  0.1305
22228SOL    HW268126   0.381   6.139   4.297 -0.1950  1.4505 -0.5372
22229SOL     OW68127   6.633   0.277   2.557  0.2542  0.5949  0.7731
22229SOL    HW168128   6.588   0.322   2.486  1.4519  1.2546  0.4053
22229SOL    HW268129   6.646   0.344   2.624 -1.9904 -0.3057  2.2271
22230SOL     OW68130   6.318   6.809   2.600  0.8488  0.2564  0.2391
22230SOL    HW168131   6.325   6.792   2.694  0.5643 -0.3011  0.1649
22230SOL    HW268132   6.224   6.809   2.583  0.9096 -1.3208 -0.3282
22231SOL     OW68133   7.308   7.325   3.176  0.4761  0.0600  0.2181
22231SOL    HW168134   7.289   7.321   3.083  1.0280 -0.4539  0.1278
22231SOL    HW268135   7.222   7.319   3.218  0.1180  1.3315 -0.2679
22232SOL     OW68136   0.819   4.459   2.888 -0.0270  0.2103 -0.1311
22232SOL    HW168137   0.808   4.364   2.891  1.2973 -0.0029 -0.9803
22232SOL    HW268138   0.800   4.488   2.977  1.4110 -1.1089  0.6567
22233SOL     OW68139   7.610   6.087   2.803  0.4261 -0.1824 -0.6547
22233SOL    HW168140   7.615   6.085   2.899 -0.5218  1.8070 -0.5146
22233SOL    HW268141   7.678   6.149   2.777 -0.7932  1.0197 -1.0773
22234SOL     OW68142   6.769   6.570   2.219  0.4825 -0.9340  0.3194
22234SOL    HW168143   6.835   6.632   2.187 -3.2568  3.8943  0.8398
22234SOL    HW268144   6.721   6.544   2.140 -0.3122  0.0057  0.4767
22235SOL     OW68145   1.534   0.959   3.283 -0.0044 -0.0759 -0.3321
22235SOL    HW168146   1.471   0.892   3.307 -1.0181  1.5930  2.0355
22235SOL    HW268147   1.487   1.042   3.294  1.3278  1.1151 -2.6844
22236SOL     OW68148   6.482   7.176   6.295  0.2066  0.6309 -0.6064
22236SOL    HW168149   6.453   7.153   6.207 -1.3816 -0.6393  0.2134
22236SOL    HW268150   6.450   7.106   6.351 -1.2913  2.7659  1.4130
22237SOL     OW68151   5.756   6.286   5.599 -0.6060 -0.1787 -0.0972
22237SOL    HW168152   5.692   6.354   5.620  0.0629  0.3473  0.3269
22237SOL    HW268153   5.727   6.209   5.647 -0.9748  0.0272  0.0089
22238SOL     OW68154   6.869   4.545   3.368 -0.4864 -0.3613 -0.2813
22238SOL    HW168155   6.940   4.607   3.351 -0.0333 -1.2231 -1.7266
22238SOL    HW268156   6.804   4.596   3.416  0.6512  0.7239  0.1807
22239SOL     OW68157   5.522   7.819   4.351 -0.3097  0.5871  0.0393
22239SOL    HW168158   5.526   7.831   4.256  1.4737 -1.5387 -0.2214
22239SOL    HW268159   5.444   7.868   4.377 -0.0674  2.4051 -2.2956
22240SOL     OW68160   1.181   0.122   4.923  0.1517  0.0915  0.4016
22240SOL    HW168161   1.162   0.034   4.889 -2.1904 -0.2440  2.3691
22240SOL    HW268162   1.218   0.107   5.010 -0.0715  1.0614  0.6734
22241SOL     OW68163   0.008   6.842   3.623 -0.0965  0.5412  0.4026
22241SOL    HW168164  -0.049   6.842   3.700  0.0589  1.2177  0.5233
22241SOL    HW268165   0.091   6.876   3.655  0.2679 -0.0941  0.1430
22242SOL     OW68166   6.809   6.230   4.401 -0.0403  0.0309 -0.3264
22242SOL    HW168167   6.721   6.195   4.386 -0.1839 -0.2381  1.0059
22242SOL    HW268168   6.795   6.310   4.453  0.4600  0.4608 -0.8342
22243SOL     OW68169   7.037   6.844   4.802 -0.5414  0.0392  0.3028
22243SOL    HW168170   7.088   6.764   4.792 -0.4935 -0.2714  2.5206
22243SOL    HW268171   6.955   6.816   4.841 -0.3969  1.0688  1.4217
22244SOL     OW68172   5.752   5.709   4.995  0.3485 -0.1840 -0.8699
22244SOL    HW168173   5.677   5.755   4.960  2.0678  2.3160 -1.4965
22244SOL    HW268174   5.749   5.726   5.090 -0.0424 -0.3710 -0.8491
22245SOL     OW68175   6.793   6.739   3.403 -0.3825  0.3930  0.9543
22245SOL    HW168176   6.823   6.658   3.362 -0.5932  0.5350  0.5206
22245SOL    HW268177   6.788   6.802   3.332 -0.1692  0.8078  1.2995
22246SOL     OW68178   6.937   4.916   5.770  0.5241 -0.4758 -0.3902
22246SOL    HW168179   6.913   5.007   5.750 -1.2507 -0.9627 -0.6333
22246SOL    HW268180   6.942   4.913   5.866  0.2103 -0.2199 -0.3657
22247SOL     OW68181   7.008   7.320   4.239  0.2048  0.2739  0.3114
22247SOL    HW168182   7.074   7.271   4.191  0.3756 -0.8330  1.5981
22247SOL    HW268183   6.956   7.364   4.172 -0.6058 -2.5030 -1.0062
22248SOL     OW68184   7.860   7.035   5.178 -0.1679 -0.2681 -0.6058
22248SOL    HW168185   7.847   6.994   5.263  1.0481 -0.6453 -0.5817
22248SOL    HW268186   7.827   7.124   5.189 -1.3461 -0.7254 -0.1830
22249SOL     OW68187   5.905   6.203   4.942 -0.2086 -0.3452 -0.4885
22249SOL    HW168188   5.838   6.268   4.923  0.1042  0.4500  1.0043
22249SOL    HW268189   5.867   6.148   5.011 -0.3344 -1.5504 -1.4822
22250SOL     OW68190   6.555   1.428   4.531  0.0818  0.6858 -0.6427
22250SOL    HW168191   6.546   1.348   4.584 -0.5508  0.8559 -0.4804
22250SOL    HW268192   6.641   1.420   4.491 -0.2868 -0.4837 -1.2768
22251SOL     OW68193   6.137   0.542   4.203  0.0779  0.4769 -0.0816
22251SOL    HW168194   6.139   0.552   4.298  2.8253 -0.8163  0.1174
22251SOL    HW268195   6.057   0.493   4.185  0.0150 -0.1539  1.7015
22252SOL     OW68196   6.498   7.218   3.487 -0.3827 -0.2617  0.3311
22252SOL    HW168197   6.562   7.175   3.544  0.3369  0.1086 -0.1743
22252SOL    HW268198   6.535   7.209   3.399 -0.4200  0.9948  0.1719
22253SOL     OW68199   6.232   7.032   5.363 -0.1893 -0.1721 -0.0599
22253SOL    HW168200   6.302   7.037   5.298 -0.1170 -0.9767 -0.0566
22253SOL    HW268201   6.243   7.111   5.416 -0.7044  0.8665 -1.4500
22254SOL     OW68202   6.681   6.958   4.624  0.2988 -0.4010  0.2438
22254SOL    HW168203   6.676   6.979   4.717 -0.4465  1.2172 -0.1334
22254SOL    HW268204   6.685   6.862   4.622 -1.7889 -0.5972  1.8653
22255SOL     OW68205   7.233   7.124   5.090  0.1307  0.5198 -0.3463
22255SOL    HW168206   7.185   7.047   5.122 -0.0618  1.3803  1.5992
22255SOL    HW268207   7.282   7.154   5.167  1.9007  1.0920 -1.6515
22256SOL     OW68208   7.337   6.880   3.839 -0.0631 -0.1170  0.2890
22256SOL    HW168209   7.312   6.793   3.809  3.1176 -0.2031 -2.7146
22256SOL    HW268210   7.418   6.866   3.888  0.2636  1.0777  0.1306
22257SOL     OW68211   7.820   5.155   6.476 -0.3883 -0.2185 -0.4660
22257SOL    HW168212   7.762   5.186   6.546  0.9120  1.6605 -0.1564
22257SOL    HW268213   7.818   5.224   6.410  0.2528 -0.8719 -1.1990
22258SOL     OW68214   0.453   6.355   4.795 -0.1007 -0.2180  0.0067
22258SOL    HW168215   0.508   6.408   4.853  0.7509 -1.5227  0.4228
22258SOL    HW268216   0.476   6.385   4.707  1.5096 -0.9253  0.1540
22259SOL     OW68217   5.500   1.227   2.735  0.0457 -0.5177  0.2935
22259SOL    HW168218   5.520   1.231   2.641 -0.8635  3.7425  0.0671
22259SOL    HW268219   5.428   1.289   2.747  1.2824  0.4891  4.0196
22260SOL     OW68220   5.413   7.762   2.746 -0.0309 -0.7433  0.2317
22260SOL    HW168221   5.367   7.777   2.664 -1.8560 -1.9524  0.9767
22260SOL    HW268222   5.462   7.681   2.733  1.5142  0.2408 -0.3666
22261SOL     OW68223   7.425   6.751   4.099  0.2388 -0.0552  0.0663
22261SOL    HW168224   7.505   6.793   4.068 -0.1279  0.9535  0.4446
22261SOL    HW268225   7.445   6.657   4.098  1.3780  0.1748  0.0490
22262SOL     OW68226   0.634   7.668   6.261 -0.0933 -0.0445 -0.3741
22262SOL    HW168227   0.676   7.660   6.175 -1.8610 -0.5865 -1.2447
22262SOL    HW268228   0.563   7.603   6.259 -1.0345  0.8801  0.9669
22263SOL     OW68229   5.566   6.088   4.589 -0.2038  0.0370 -0.1727
22263SOL    HW168230   5.560   6.043   4.505 -1.1568  0.1280 -0.1629
22263SOL    HW268231   5.637   6.152   4.577  1.0035 -1.2696 -0.2584
22264SOL     OW68232   6.575   6.888   3.739  0.3370 -0.3984 -0.2096
22264SOL    HW168233   6.516   6.815   3.722  1.7044 -1.2001 -1.8291
22264SOL    HW268234   6.660   6.859   3.705  1.2519  1.4132  0.3607
22265SOL     OW68235   6.352   6.618   6.144 -0.3511 -0.1542  0.1137
22265SOL    HW168236   6.272   6.666   6.120  0.1090  0.0174 -1.1826
22265SOL    HW268237   6.382   6.579   6.062  1.7113  1.0266  0.2266
22266SOL     OW68238   5.618   6.637   2.330  0.4789 -0.2354  0.0312
22266SOL    HW168239   5.631   6.712   2.273  1.8503  0.5540  1.3433
22266SOL    HW268240   5.669   6.567   2.290  0.6360  0.0254 -0.2246
22267SOL     OW68241   5.459   6.860   5.429 -0.5344  0.0930 -0.0525
22267SOL    HW168242   5.491   6.810   5.354 -0.4618  0.6975 -0.4260
22267SOL    HW268243   5.513   6.939   5.431  0.0551 -0.3004  1.1540
22268SOL     OW68244   7.086   6.714   6.649 -0.2862  0.3683  0.2548
22268SOL    HW168245   6.992   6.716   6.634 -0.1737  0.2516 -0.5149
22268SOL    HW268246   7.095   6.711   6.744 -1.0266  2.1622  0.4313
22269SOL     OW68247   7.250   6.653   4.790  0.0843 -0.2064 -0.0662
22269SOL    HW168248   7.260   6.657   4.695 -2.3141  0.5586 -0.3503
22269SOL    HW268249   7.272   6.562   4.813  1.1023 -0.2900 -1.2528
22270SOL     OW68250   5.317   5.468   4.714  0.1262  0.2051  0.4442
22270SOL    HW168251   5.308   5.518   4.632  1.7577  1.9751  1.2734
22270SOL    HW268252   5.350   5.382   4.686 -2.3202 -0.3834 -0.9786
22271SOL     OW68253   0.653   7.633   4.207 -0.0021  0.0657  0.6150
22271SOL    HW168254   0.592   7.704   4.187 -1.6648 -1.6301 -0.7045
22271SOL    HW268255   0.735   7.659   4.166 -0.4655  1.3779  0.4690
22272SOL     OW68256   7.308   1.253   4.248  0.4696  0.5307 -0.1015
22272SOL    HW168257   7.270   1.255   4.160 -0.9157 -0.6890  0.4336
22272SOL    HW268258   7.233   1.252   4.307  1.3806  1.3905  1.1175
22273SOL     OW68259   6.481   5.230   3.933  0.0811 -0.0436 -0.2143
22273SOL    HW168260   6.458   5.219   3.841 -0.2454  0.0082 -0.1398
22273SOL    HW268261   6.567   5.189   3.941 -0.4825 -1.2739 -0.2419
22274SOL     OW68262   7.750   6.162   4.233  0.2307  0.3547  0.2434
22274SOL    HW168263   7.771   6.146   4.325  0.0213 -1.9516 -0.0534
22274SOL    HW268264   7.704   6.246   4.233  1.0151  0.8392  2.1127
22275SOL     OW68265   1.161   7.874   4.846 -0.0409 -0.0039 -0.0292
22275SOL    HW168266   1.073   7.840   4.860  0.0282  0.1237  0.7298
22275SOL    HW268267   1.177   7.861   4.752 -0.9876  0.2701 -0.2413
22276SOL     OW68268   6.340   4.565   4.491  0.5524  0.6327  0.2977
22276SOL    HW168269   6.298   4.501   4.548  1.4000  0.4470  0.7275
22276SOL    HW268270   6.307   4.650   4.522  0.6411  0.5036  0.7479
22277SOL     OW68271   0.104   6.016   4.415 -0.3641  0.2619  0.2048
22277SOL    HW168272   0.087   6.074   4.489 -0.5524 -1.4688  1.6001
22277SOL    HW268273   0.033   5.952   4.419  0.8662 -1.1658 -0.0779
22278SOL     OW68274   7.519   7.380   5.876  0.1470 -0.3237  0.2738
22278SOL    HW168275   7.565   7.296   5.884  1.5160 -0.0261 -3.0361
22278SOL    HW268276   7.430   7.356   5.851 -0.0522 -0.7838  1.3526
22279SOL     OW68277   6.947   5.253   5.330 -0.4517 -0.1471  0.0879
22279SOL    HW168278   6.934   5.342   5.362 -1.3082 -0.0536 -0.4896
22279SOL    HW268279   6.984   5.264   5.243 -0.2193 -0.3633  0.1575
22280SOL     OW68280   6.969   6.150   2.705  0.3304 -0.1196  0.3504
22280SOL    HW168281   6.912   6.074   2.693 -0.7674  0.7789 -0.2647
22280SOL    HW268282   7.047   6.130   2.653 -0.5273 -0.2368 -0.9031
22281SOL     OW68283   6.379   6.489   4.256 -0.1226  0.0191  0.2706
22281SOL    HW168284   6.370   6.580   4.283  1.0321  0.7602 -1.6160
22281SOL    HW268285   6.311   6.476   4.190  0.2947 -0.1837 -0.1317
22282SOL     OW68286   6.016   6.597   4.688  0.3982 -0.1746  0.1304
22282SOL    HW168287   6.005   6.686   4.722 -2.3307  0.1746 -1.4286
22282SOL    HW268288   5.981   6.600   4.599  0.5154 -2.7482 -0.0914
22283SOL     OW68289   7.344   5.931   5.254  0.1654  0.6514  0.1732
22283SOL    HW168290   7.257   5.898   5.231  0.7874 -2.7624  2.0058
22283SOL    HW268291   7.337   5.955   5.347  1.1379  0.4868  0.3003
22284SOL     OW68292   6.761   1.161   5.360 -0.0172 -0.6806  0.5544
22284SOL    HW168293   6.804   1.107   5.294 -0.0819 -0.2261  0.1385
22284SOL    HW268294   6.832   1.212   5.399 -0.2518  0.5528 -0.5865
22285SOL     OW68295   6.620   6.454   4.477  0.1793 -0.2124 -0.4737
22285SOL    HW168296   6.554   6.459   4.408  0.6363  0.2498 -0.8845
22285SOL    HW268297   6.570   6.447   4.558 -0.4240  1.8518 -0.6198
22286SOL     OW68298   5.778   6.038   5.152  0.2674 -0.4138  0.2032
22286SOL    HW168299   5.777   5.943   5.151  1.2488 -0.4350 -0.5338
22286SOL    HW268300   5.686   6.064   5.154 -0.0028 -1.3612  1.8318
22287SOL     OW68301   7.382   0.453   5.528 -0.3075  0.0662 -0.3417
22287SOL    HW168302   7.369   0.524   5.590  2.2735  2.1633 -1.9561
22287SOL    HW268303   7.328   0.477   5.452 -0.5597 -0.4978 -0.3483
22288SOL     OW68304   6.769   4.469   5.099 -0.1162 -0.4765 -0.1644
22288SOL    HW168305   6.836   4.401   5.087  0.2416 -0.2189  0.3314
22288SOL    HW268306   6.819   4.548   5.121 -0.6516 -0.6598  1.9033
22289SOL     OW68307   6.266   7.622   5.531 -0.3386  0.0926  0.5059
22289SOL    HW168308   6.243   7.693   5.592 -0.4154  1.1523 -0.7237
22289SOL    HW268309   6.294   7.667   5.452 -0.1956 -1.2717 -0.2399
22290SOL     OW68310   6.292   6.486   3.834 -0.0516 -0.0268  0.2261
22290SOL    HW168311   6.219   6.462   3.891  0.5481  0.0516  1.0582
22290SOL    HW268312   6.309   6.408   3.782 -1.7099  0.4459 -1.0936
22291SOL     OW68313   7.770   5.960   4.066  0.5174  0.2312  0.5086
22291SOL    HW168314   7.770   6.000   3.979  0.2982 -0.4133  0.2049
22291SOL    HW268315   7.775   6.034   4.126  3.4858  0.5994 -0.0538
22292SOL     OW68316   7.000   7.766   4.374  0.3504  0.3053 -0.2096
22292SOL    HW168317   7.063   7.799   4.310  3.8769  0.2900  2.8882
22292SOL    HW268318   7.011   7.670   4.370 -0.1676  0.2453 -0.2559
22293SOL     OW68319   7.717   1.027   4.187  0.1121 -0.2209 -0.0640
22293SOL    HW168320   7.630   1.034   4.225  0.7481 -0.5316  1.5631
22293SOL    HW268321   7.769   0.984   4.255  1.1194 -1.7136 -1.6842
22294SOL     OW68322   5.897   6.819   6.086  0.4527 -0.1377  0.0605
22294SOL    HW168323   5.979   6.770   6.085 -0.0079 -0.9191  0.3013
22294SOL    HW268324   5.868   6.818   5.995  0.8017  0.3022 -0.0590
22295SOL     OW68325   0.208   4.421   4.886 -0.2964  0.2507  0.2180
22295SOL    HW168326   0.303   4.431   4.891 -0.2559 -0.0792  0.0934
22295SOL    HW268327   0.173   4.503   4.922  0.0342  0.3945  0.2085
22296SOL     OW68328   7.346   7.441   3.571  0.1043 -0.1142  0.4882
22296SOL    HW168329   7.400   7.504   3.523 -1.1004  1.7678  1.4727
22296SOL    HW268330   7.261   7.484   3.579 -1.4955 -2.8453 -0.7385
22297SOL     OW68331   7.040   5.791   2.794  0.3580  0.0511  0.3420
22297SOL    HW168332   7.099   5.715   2.797  0.8603 -0.1733 -5.1084
22297SOL    HW268333   6.953   5.753   2.780  0.1668  0.4453  0.4622
22298SOL     OW68334   6.092   7.446   4.171  0.2834  0.2911  0.0629
22298SOL    HW168335   6.150   7.466   4.098  0.4974  0.3429  0.2446
22298SOL    HW268336   6.062   7.531   4.201 -0.4321  0.2307 -0.4657
22299SOL     OW68337   7.025   5.826   5.178 -0.4283  0.4539  0.2243
22299SOL    HW168338   7.034   5.906   5.231  2.2183  0.7552 -0.5155
22299SOL    HW268339   7.006   5.858   5.090 -0.2492  0.2187  0.1001
22300SOL     OW68340   5.311   0.446   3.606 -0.9388  0.1217 -0.8123
22300SOL    HW168341   5.375   0.517   3.613 -0.4676 -0.4233  1.6205
22300SOL    HW268342   5.361   0.373   3.570 -0.9465  0.4970 -1.5957
22301SOL     OW68343   6.802   5.764   4.953 -0.2220 -0.6149 -0.5942
22301SOL    HW168344   6.752   5.827   5.005 -1.0048 -0.7754 -1.1497
22301SOL    HW268345   6.818   5.809   4.870  0.0243 -0.8053 -0.6515
22302SOL     OW68346   6.872   5.438   4.519  0.7107  0.0739 -0.4163
22302SOL    HW168347   6.848   5.419   4.610 -0.0485  1.7327 -0.2355
22302SOL    HW268348   6.839   5.363   4.470  1.5951 -1.1071  0.7047
22303SOL     OW68349   5.669   6.114   2.021  0.3099  0.7613 -0.4185
22303SOL    HW168350   5.593   6.149   2.067 -0.0056  0.2895 -0.5665
22303SOL    HW268351   5.640   6.029   1.988  1.6726 -0.6557  1.7276
22304SOL     OW68352   6.218   5.133   4.568  0.0662  0.6757  0.0156
22304SOL    HW168353   6.175   5.183   4.637 -0.3135  0.0954  0.2110
22304SOL    HW268354   6.152   5.128   4.498 -0.3413 -0.5318  0.4625
22305SOL     OW68355   6.109   0.888   2.659  0.3708 -0.2663 -0.0224
22305SOL    HW168356   6.014   0.897   2.645  0.2270 -0.4318  0.7500
22305SOL    HW268357   6.120   0.797   2.685  1.2137 -1.2593 -3.4164
22306SOL     OW68358   6.447   4.759   5.872  0.1641 -0.0265 -0.0127
22306SOL    HW168359   6.429   4.828   5.936 -0.7751  1.3788 -1.7068
22306SOL    HW268360   6.367   4.707   5.870  1.2171 -1.8787  1.9866
22307SOL     OW68361   5.911   0.279   3.826  0.5557 -0.0244 -0.3105
22307SOL    HW168362   5.934   0.268   3.919 -0.1845  0.5345 -0.0467
22307SOL    HW268363   5.989   0.251   3.778  0.8769 -0.5174  0.4759
22308SOL     OW68364   4.949   7.543   5.738  0.1238 -0.2588 -0.5525
22308SOL    HW168365   5.019   7.608   5.748  0.4923 -0.8430  0.9054
22308SOL    HW268366   4.972   7.473   5.799 -1.1644 -0.9805 -0.8509
22309SOL     OW68367   6.091   5.508   2.006  0.6046 -0.2392 -0.2121
22309SOL    HW168368   6.098   5.419   1.973  0.3569 -0.3899  0.1432
22309SOL    HW268369   6.116   5.563   1.931  0.9771 -0.6089 -0.3671
22310SOL     OW68370   7.187   6.408   3.380  0.3118  0.1091 -0.2965
22310SOL    HW168371   7.175   6.334   3.320 -1.1699 -0.2917  0.4285
22310SOL    HW268372   7.275   6.396   3.416  0.0672 -1.3699 -0.1294
22311SOL     OW68373   7.538   5.239   4.709  0.5212  0.0807  0.0006
22311SOL    HW168374   7.573   5.159   4.670  1.5938  0.7987 -0.5573
22311SOL    HW268375   7.459   5.258   4.657  0.0170 -0.8301  0.4160
22312SOL     OW68376   7.216   6.918   4.456  0.4538 -0.0735  0.7707
22312SOL    HW168377   7.139   6.972   4.471 -0.5704 -0.4994 -2.2392
22312SOL    HW268378   7.222   6.910   4.361  2.3967 -2.6553  0.9842
22313SOL     OW68379   7.006   5.326   3.609  0.1998 -0.4014 -0.0328
22313SOL    HW168380   6.970   5.316   3.521  1.2024 -1.2355 -0.3641
22313SOL    HW268381   6.993   5.241   3.650  2.0443 -0.8288 -0.2757
22314SOL     OW68382   0.037   0.938   4.975  0.4169  0.3007 -0.1096
22314SOL    HW168383   0.042   1.033   4.977  0.9526  0.2825 -0.5607
22314SOL    HW268384  -0.006   0.918   4.892 -1.6988  0.2138  0.9259
22315SOL     OW68385   6.718   7.514   3.387 -0.4589  0.8607  0.0988
22315SOL    HW168386   6.707   7.538   3.479 -1.5091 -0.5535  0.3680
22315SOL    HW268387   6.807   7.480   3.382  0.5540  3.2781  0.0043
22316SOL     OW68388   6.109   5.886   4.873  0.0790 -0.3506  0.6071
22316SOL    HW168389   6.196   5.911   4.904  0.9163 -1.0949 -1.0236
22316SOL    HW268390   6.078   5.964   4.826  0.9010 -0.8417 -0.8294
22317SOL     OW68391   7.496   5.922   4.798 -0.0794  0.0332  0.1172
22317SOL    HW168392   7.513   5.832   4.771  1.7535  0.2425  0.4501
22317SOL    HW268393   7.520   5.925   4.891  1.5825  1.2330 -0.2968
22318SOL     OW68394   7.570   7.428   3.248  0.4929 -0.1368 -0.1968
22318SOL    HW168395   7.563   7.497   3.314  0.6279  1.0398 -1.3672
22318SOL    HW268396   7.480   7.412   3.220  0.4847 -0.2628 -0.0994
22319SOL     OW68397   6.133   5.271   3.450  0.2611 -0.7806 -0.2489
22319SOL    HW168398   6.138   5.353   3.497 -2.3372  0.1380 -1.3837
22319SOL    HW268399   6.135   5.296   3.357  0.8449 -2.1528 -0.6434
22320SOL     OW68400   0.216   7.162   4.914 -0.1307  0.1847  0.0242
22320SOL    HW168401   0.223   7.144   4.820  0.8702  0.8453 -0.0337
22320SOL    HW268402   0.280   7.231   4.930 -0.7577  0.5326  1.0792
22321SOL     OW68403   6.868   3.891   3.910 -0.3801  0.0310 -0.5142
22321SOL    HW168404   6.911   3.840   3.978 -0.8746  0.1115 -0.1331
22321SOL    HW268405   6.802   3.942   3.957 -0.4578  0.3852 -1.0021
22322SOL     OW68406   1.059   7.538   5.834 -0.1946 -0.0267  0.2018
22322SOL    HW168407   0.989   7.489   5.791 -0.6165  2.1929 -1.8943
22322SOL    HW268408   1.136   7.482   5.827 -0.8912 -0.8680 -1.0609
22323SOL     OW68409   7.819   6.458   3.687 -0.2159  0.1846 -0.2639
22323SOL    HW168410   7.768   6.387   3.649  1.2681 -0.7420 -0.6164
22323SOL    HW268411   7.760   6.499   3.750 -1.8785  0.1245 -1.6933
22324SOL     OW68412   0.063   7.869   5.684  0.1728  0.5386 -0.3673
22324SOL    HW168413  -0.017   7.857   5.735  1.0151 -1.1710  0.6463
22324SOL    HW268414   0.110   7.939   5.730  0.0801  0.2894  0.1152
22325SOL     OW68415   6.776   5.670   4.641 -0.2425  1.0357  0.6553
22325SOL    HW168416   6.775   5.590   4.588 -0.4832  0.6334  1.2481
22325SOL    HW268417   6.857   5.714   4.616  0.2419  0.2619  0.8011
22326SOL     OW68418   5.887   6.161   3.838  0.0641 -0.0611 -0.1976
22326SOL    HW168419   5.833   6.154   3.759 -0.0091 -0.1121 -0.1435
22326SOL    HW268420   5.906   6.070   3.862 -2.5486 -0.2181  1.6460
22327SOL     OW68421   0.634   6.190   5.849  0.0964  0.0769 -0.0639
22327SOL    HW168422   0.575   6.253   5.808  1.4917  1.7420  0.3863
22327SOL    HW268423   0.669   6.235   5.926  1.0975 -1.2700  0.3207
22328SOL     OW68424   7.340   6.629   3.765  0.4777 -0.3865  0.0328
22328SOL    HW168425   7.411   6.565   3.764 -0.2482 -1.2092 -1.0400
22328SOL    HW268426   7.268   6.585   3.719  0.5263  1.8582 -2.3920
22329SOL     OW68427   6.544   7.995   4.509 -0.1428  0.0976 -0.3305
22329SOL    HW168428   6.575   7.942   4.583  0.2835  0.0792 -0.5176
22329SOL    HW268429   6.590   7.959   4.433  0.4461  0.9843 -0.4069
22330SOL     OW68430   5.522   5.377   4.018 -0.9643  0.1298 -0.1784
22330SOL    HW168431   5.529   5.288   4.052  1.9109 -0.0498 -0.9872
22330SOL    HW268432   5.498   5.365   3.926 -2.9537  0.3596  0.2676
22331SOL     OW68433   7.762   0.159   5.611  0.1124  0.0081 -0.2672
22331SOL    HW168434   7.683   0.207   5.637  0.8798  0.9030  0.5420
22331SOL    HW268435   7.831   0.198   5.665  0.6592 -2.5978  1.0530
22332SOL     OW68436   6.408   4.384   5.382 -0.1051 -0.3802  0.1688
22332SOL    HW168437   6.405   4.291   5.405 -1.3547 -0.1219  1.1404
22332SOL    HW268438   6.382   4.429   5.462  0.8321  0.8449 -0.1816
22333SOL     OW68439   7.886   5.799   3.618 -0.4623 -0.2341 -0.3727
22333SOL    HW168440   7.881   5.706   3.596  0.1088 -0.3470 -0.0534
22333SOL    HW268441   7.942   5.837   3.550  1.2555 -0.5739  0.7969
22334SOL     OW68442   7.983   7.338   5.453 -0.4739  0.2527  0.2080
22334SOL    HW168443   8.053   7.316   5.392 -1.4765  1.1406 -1.3408
22334SOL    HW268444   7.979   7.263   5.513  0.8208 -0.4702 -0.5546
22335SOL     OW68445   5.892   7.259   4.516 -0.3416 -0.0331 -0.3149
22335SOL    HW168446   5.861   7.171   4.494 -0.1226 -0.0257 -0.6613
22335SOL    HW268447   5.964   7.245   4.577  2.2825 -0.3293 -3.2012
22336SOL     OW68448   6.155   4.986   5.289  0.1078  0.1164 -0.0294
22336SOL    HW168449   6.118   5.002   5.203  1.3097 -1.2448 -0.8462
22336SOL    HW268450   6.249   5.003   5.279  0.2234  0.2026  1.0782
22337SOL     OW68451   4.632   0.535   6.150  0.3496 -0.1752 -0.1540
22337SOL    HW168452   4.638   0.600   6.220 -0.3498 -1.3938  1.1010
22337SOL    HW268453   4.586   0.580   6.079 -0.6195  0.5593  0.8896
22338SOL     OW68454   5.978   5.902   4.551 -0.0104 -1.1006 -0.6765
22338SOL    HW168455   5.952   5.938   4.466 -1.1542 -1.8496 -0.6809
22338SOL    HW268456   6.006   5.977   4.602  0.2460 -0.5799 -1.5709
22339SOL     OW68457   6.153   7.730   3.723  0.2795 -0.3200  0.3841
22339SOL    HW168458   6.109   7.653   3.760 -1.8369  0.3836 -0.4873
22339SOL    HW268459   6.141   7.798   3.789 -0.8288  0.1173 -0.2310
22340SOL     OW68460   7.086   7.409   4.734  0.5505 -0.4039 -0.0449
22340SOL    HW168461   7.012   7.350   4.745  0.2321 -0.1295 -0.6277
22340SOL    HW268462   7.130   7.409   4.819 -0.0607 -0.6482  0.2790
22341SOL     OW68463   7.829   0.423   5.984 -0.4960 -0.1679 -0.3161
22341SOL    HW168464   7.869   0.423   6.071 -0.7237 -0.4665 -0.2105
22341SOL    HW268465   7.737   0.402   6.000 -0.2935 -1.4663 -0.7466
22342SOL     OW68466   0.228   5.709   1.890  0.4183  0.4870 -0.1145
22342SOL    HW168467   0.174   5.740   1.817 -1.5991  2.5111  2.0564
22342SOL    HW268468   0.300   5.772   1.895 -0.3420  1.3264  0.5841
22343SOL     OW68469   5.961   7.072   5.340 -0.3032  0.5691  0.3599
22343SOL    HW168470   6.055   7.057   5.329 -0.3510  0.4147  0.1549
22343SOL    HW268471   5.943   7.042   5.429 -0.1893  0.4453  0.3422
22344SOL     OW68472   5.545   7.242   5.146 -0.2288  1.0582  0.8690
22344SOL    HW168473   5.464   7.281   5.113 -0.1560 -0.1378 -0.8768
22344SOL    HW268474   5.603   7.240   5.069  0.6043 -0.2586  1.5064
22345SOL     OW68475   7.315   5.291   4.555 -0.1163  0.3810  0.1737
22345SOL    HW168476   7.253   5.250   4.495 -0.0641  0.4790  0.0536
22345SOL    HW268477   7.295   5.384   4.552  0.2010  0.4446 -0.0572
22346SOL     OW68478   7.685   4.299   6.279  0.5293  0.0905 -0.1466
22346SOL    HW168479   7.637   4.373   6.243  0.8967  0.4828  0.1456
22346SOL    HW268480   7.769   4.300   6.233  1.9577  2.0334  2.2412
22347SOL     OW68481   6.612   4.960   6.932 -0.0263  0.1583  0.0137
22347SOL    HW168482   6.552   5.008   6.990 -0.1179 -0.7139  0.6613
22347SOL    HW268483   6.681   4.928   6.990 -0.0813 -0.6733 -0.3640
22348SOL     OW68484   6.440   5.952   4.918 -0.6039 -0.4956  0.2022
22348SOL    HW168485   6.398   5.944   5.003  1.4313  2.3144  1.6253
22348SOL    HW268486   6.529   5.918   4.932  0.3549  1.6979 -0.2023
22349SOL     OW68487   6.801   6.570   4.244  0.4461  0.0945  1.0209
22349SOL    HW168488   6.784   6.642   4.183  0.4355  0.8011  1.8444
22349SOL    HW268489   6.775   6.492   4.196 -1.9704  0.8300  1.0023
22350SOL     OW68490   7.265   7.146   4.226 -0.5230 -0.1871  0.0031
22350SOL    HW168491   7.242   7.053   4.227  0.9800 -0.5749  0.0336
22350SOL    HW268492   7.345   7.152   4.278 -1.5272  1.4071  1.4949
22351SOL     OW68493   6.314   6.821   4.954  0.0830  0.3743  0.2590
22351SOL    HW168494   6.235   6.852   5.000 -0.1156  0.6672 -0.2704
22351SOL    HW268495   6.356   6.902   4.924 -1.1074  0.1418 -2.2652
22352SOL     OW68496   6.734   7.193   5.634  0.3536 -0.0660 -0.1153
22352SOL    HW168497   6.722   7.098   5.631  1.3763 -0.2368  0.5383
22352SOL    HW268498   6.697   7.219   5.718 -0.6453  0.2350 -0.6439
22353SOL     OW68499   6.922   6.476   5.060  0.1174  0.0557 -0.2367
22353SOL    HW168500   6.868   6.398   5.069 -0.8589  0.8886  1.6196
22353SOL    HW268501   6.859   6.549   5.063  1.2302  1.0139  0.9706
22354SOL     OW68502   6.345   5.671   6.807  0.1554 -0.3821 -0.3059
22354SOL    HW168503   6.340   5.587   6.761  0.0131 -0.4736 -0.1255
22354SOL    HW268504   6.273   5.668   6.869 -0.1179  0.0554 -0.5972
22355SOL     OW68505   6.166   7.158   5.850 -0.1886  0.6057 -0.3247
22355SOL    HW168506   6.098   7.168   5.784 -0.9894  0.9008  0.5371
22355SOL    HW268507   6.124   7.112   5.922  1.2469 -1.7287 -0.8547
22356SOL     OW68508   7.293   6.296   5.085  0.1377  0.1947  0.2870
22356SOL    HW168509   7.290   6.342   5.169  1.7066 -0.7006  0.8813
22356SOL    HW268510   7.212   6.246   5.082 -1.3953  2.5659 -0.1677
22357SOL     OW68511   5.471   7.284   6.336  0.0937  0.1620  0.3831
22357SOL    HW168512   5.381   7.283   6.368 -0.3002  0.9125 -0.6333
22357SOL    HW268513   5.463   7.296   6.242  1.2646  2.2906  0.4664
22358SOL     OW68514   6.350   5.512   4.622  0.1795  0.1792  0.1704
22358SOL    HW168515   6.386   5.528   4.535 -0.5709 -1.1942 -0.4396
22358SOL    HW268516   6.426   5.494   4.677  0.7080  1.6899 -0.0289
22359SOL     OW68517   1.344   7.309   4.906 -0.2721  0.2105 -0.5338
22359SOL    HW168518   1.332   7.393   4.862  0.6258 -0.1448 -1.5150
22359SOL    HW268519   1.281   7.250   4.865  0.0085  0.0819 -0.7865
22360SOL     OW68520   6.444   7.064   4.815  0.6668 -0.2534  0.7324
22360SOL    HW168521   6.535   7.076   4.843  0.1684  0.7060  2.0362
22360SOL    HW268522   6.420   7.147   4.774  0.4495 -0.5937  0.1629
22361SOL     OW68523   7.038   6.025   4.382 -0.7235 -0.1880  0.2292
22361SOL    HW168524   7.063   5.957   4.320  0.1392  1.0691 -0.8518
22361SOL    HW268525   6.945   6.039   4.367 -0.3315  0.7664 -1.4945
22362SOL     OW68526   0.550   7.475   5.157 -0.1015 -0.3398 -0.0641
22362SOL    HW168527   0.504   7.394   5.135 -1.7279  0.2135  1.0920
22362SOL    HW268528   0.564   7.470   5.251 -1.6343  1.3403  0.3200
22363SOL     OW68529   6.413   5.268   5.351  0.4226  0.3732  0.3069
22363SOL    HW168530   6.424   5.174   5.364 -2.5019 -0.4145 -1.9447
22363SOL    HW268531   6.462   5.287   5.271 -0.5227  0.3708 -0.2738
22364SOL     OW68532   6.780   6.218   5.048 -0.3992 -0.3437  0.0635
22364SOL    HW168533   6.694   6.260   5.038  0.4501  1.7228  0.7925
22364SOL    HW268534   6.760   6.130   5.079 -2.2686  0.4112  1.2240
22365SOL     OW68535   5.472   7.042   4.298 -0.1273 -0.0450  0.0284
22365SOL    HW168536   5.432   6.959   4.322  0.9857 -1.3031 -2.1893
22365SOL    HW268537   5.461   7.048   4.204 -1.5876  3.1486  0.2761
22366SOL     OW68538   7.109   5.982   4.913  0.3675  0.1489 -0.2107
22366SOL    HW168539   7.070   6.020   4.834  0.3814  0.8171  0.0993
22366SOL    HW268540   7.076   6.037   4.985  0.0568 -0.6672  0.2939
22367SOL     OW68541   0.110   5.786   4.669  0.2624  0.0901 -0.1718
22367SOL    HW168542   0.050   5.724   4.629  0.9365 -0.5994 -0.1391
22367SOL    HW268543   0.077   5.797   4.758  1.2776 -1.8352  0.5065
22368SOL     OW68544   6.445   0.456   3.078 -0.0052 -0.5630  0.0989
22368SOL    HW168545   6.467   0.366   3.055  2.1402 -0.4060  1.3113
22368SOL    HW268546   6.519   0.487   3.130 -1.9385  0.9846  2.1307
22369SOL     OW68547   5.849   1.120   4.415 -0.0081  0.2810 -0.2257
22369SOL    HW168548   5.826   1.201   4.460 -0.4576 -0.2827  0.5820
22369SOL    HW268549   5.934   1.095   4.452  0.1742  0.4188 -0.5404
22370SOL     OW68550   6.524   6.347   5.386  0.4443  0.1430  0.3294
22370SOL    HW168551   6.504   6.283   5.317  0.4463  0.8335 -0.3304
22370SOL    HW268552   6.465   6.420   5.368 -1.1669 -0.5491  2.4048
22371SOL     OW68553   7.009   6.537   3.848 -0.1749 -0.1277 -0.0052
22371SOL    HW168554   7.049   6.533   3.761  0.3207  0.3210  0.1931
22371SOL    HW268555   7.067   6.484   3.903 -0.2646 -0.0804  0.1348
22372SOL     OW68556   5.444   7.113   4.764  0.2086 -0.8803  0.3093
22372SOL    HW168557   5.477   7.024   4.754  0.2570 -0.6383 -2.5578
22372SOL    HW268558   5.511   7.168   4.724  0.5148  0.5736  2.6665
22373SOL     OW68559   7.192   5.747   4.795  0.7478 -0.2495 -0.0469
22373SOL    HW168560   7.166   5.830   4.835  0.7197 -0.1459 -0.2817
22373SOL    HW268561   7.162   5.680   4.857  0.8665 -0.0808  0.1945
22374SOL     OW68562   7.911   6.613   5.338  1.2056 -0.2942  0.1662
22374SOL    HW168563   7.994   6.567   5.329  1.1667 -0.4685  0.6742
22374SOL    HW268564   7.846   6.552   5.301  1.4116  0.2405 -1.1290
22375SOL     OW68565   4.631   5.521   2.196 -0.2630  0.2934  0.9237
22375SOL    HW168566   4.611   5.429   2.176  1.8142  0.1458 -0.8435
22375SOL    HW268567   4.546   5.564   2.196 -1.2679 -1.5575  1.5415
22376SOL     OW68568   6.580   4.587   4.878  0.0489  0.5046 -0.4637
22376SOL    HW168569   6.654   4.557   4.932 -1.0885 -0.8709  0.4089
22376SOL    HW268570   6.519   4.513   4.878 -1.1502  1.4432 -1.5256
22377SOL     OW68571   5.251   6.834   4.124 -0.3623 -0.0517 -0.3563
22377SOL    HW168572   5.308   6.817   4.199  0.7399 -3.8255 -1.7792
22377SOL    HW268573   5.163   6.817   4.157 -0.0270 -0.4003  0.3919
22378SOL     OW68574   6.423   5.941   4.631 -0.0401 -0.0462 -0.3324
22378SOL    HW168575   6.454   5.934   4.721  2.9878 -3.5275 -1.4175
22378SOL    HW268576   6.346   5.884   4.628  0.6648 -1.0284 -0.1936
22379SOL     OW68577   6.715   7.051   4.906  0.1430 -1.2331  0.0771
22379SOL    HW168578   6.775   7.105   4.957 -0.1293  0.4701 -1.3089
22379SOL    HW268579   6.723   6.964   4.944  0.0958 -0.1286  2.8759
22380SOL     OW68580   5.443   6.297   2.020  0.0152 -0.3319 -0.2222
22380SOL    HW168581   5.443   6.392   2.021 -0.9328 -0.2969 -1.5042
22380SOL    HW268582   5.434   6.274   1.927 -0.2057 -1.6650  0.1131
22381SOL     OW68583   5.147   0.555   4.805 -0.7766  0.1086 -0.1432
22381SOL    HW168584   5.204   0.617   4.758  0.6665 -0.1058  1.2407
22381SOL    HW268585   5.161   0.472   4.759  0.8360 -0.1598  0.7653
22382SOL     OW68586   6.540   6.926   6.195  0.0762 -0.1936 -0.2437
22382SOL    HW168587   6.628   6.961   6.210 -0.4806  1.2972 -0.3577
22382SOL    HW268588   6.537   6.847   6.249  1.0901  0.3604  0.6722
22383SOL     OW68589   7.368   6.419   3.127  0.2520  0.2999 -0.2008
22383SOL    HW168590   7.464   6.426   3.128  0.3286 -0.3717 -1.3201
22383SOL    HW268591   7.338   6.510   3.122  0.8722  0.4808 -1.0002
22384SOL     OW68592   7.449   6.065   6.073  0.1504 -0.1705 -0.7144
22384SOL    HW168593   7.467   6.153   6.108  0.8435 -0.2766 -0.7962
22384SOL    HW268594   7.363   6.073   6.033 -0.2929  0.1784  0.2703
22385SOL     OW68595   0.838   0.940   4.055  0.6401  0.7509 -0.6657
22385SOL    HW168596   0.818   1.033   4.068  0.5528  0.6209  0.1607
22385SOL    HW268597   0.910   0.922   4.114 -0.0992  0.0231  0.0386
22386SOL     OW68598   4.541   6.565   6.260 -0.2669  0.7675  0.1732
22386SOL    HW168599   4.461   6.573   6.208 -0.0247  0.5121 -0.2442
22386SOL    HW268600   4.610   6.545   6.196 -0.1229 -0.4879  0.6881
22387SOL     OW68601   0.099   7.260   5.736 -0.3347  0.0318 -0.4222
22387SOL    HW168602   0.166   7.303   5.682  0.9311 -1.0127  0.2404
22387SOL    HW268603   0.146   7.188   5.778 -2.0086 -1.0238 -0.2801
22388SOL     OW68604   6.767   3.476   4.634  0.1412 -0.1638  0.4107
22388SOL    HW168605   6.727   3.559   4.607 -0.9709 -0.6609  0.4606
22388SOL    HW268606   6.859   3.498   4.649  0.4537  0.5158 -2.0753
22389SOL     OW68607   0.390   7.246   6.007 -0.2579 -0.8214 -0.7291
22389SOL    HW168608   0.360   7.246   6.097  0.2703 -2.3134 -0.5095
22389SOL    HW268609   0.476   7.289   6.010 -0.5229 -0.3011 -0.6325
22390SOL     OW68610   6.293   0.324   5.301  0.3860 -0.1252  0.3624
22390SOL    HW168611   6.290   0.363   5.213 -1.7724 -1.2025 -0.1167
22390SOL    HW268612   6.228   0.254   5.298 -0.3727  0.3357  3.0652
22391SOL     OW68613   0.897   6.446   5.634 -0.3821  0.0109  0.5087
22391SOL    HW168614   0.835   6.474   5.702 -1.1865 -0.0303 -0.1975
22391SOL    HW268615   0.903   6.521   5.575  1.6667  0.7295  1.5189
22392SOL     OW68616   7.069   0.587   5.474 -0.1184 -0.3416 -0.4168
22392SOL    HW168617   7.066   0.501   5.431  1.0464  0.0413 -1.3256
22392SOL    HW268618   7.050   0.649   5.404  1.8876  0.2965 -0.4612
22393SOL     OW68619   5.902   0.252   4.644 -0.1367  0.0922  0.1781
22393SOL    HW168620   5.955   0.175   4.622 -1.4750 -0.2162 -2.2018
22393SOL    HW268621   5.824   0.244   4.591 -0.1283  3.3729 -0.5506
22394SOL     OW68622   7.170   0.886   5.971 -0.2375  0.2885  0.0832
22394SOL    HW168623   7.262   0.887   5.945 -0.6423 -1.9460 -1.7922
22394SOL    HW268624   7.156   0.798   6.008 -1.3436  1.0402  1.5683
22395SOL     OW68625   0.942   6.455   5.224  0.0697 -0.3244  0.1964
22395SOL    HW168626   0.943   6.365   5.192  0.3806 -0.4444  0.5411
22395SOL    HW268627   1.023   6.464   5.274 -0.0327  0.1002  0.2907
22396SOL     OW68628   0.129   6.967   3.128 -0.3228 -0.7596 -0.0682
22396SOL    HW168629   0.180   7.003   3.200 -1.5240  1.0325 -0.0587
22396SOL    HW268630   0.040   6.958   3.163 -0.2435 -3.1050 -0.3135
22397SOL     OW68631   7.912   7.084   4.008 -0.5491 -0.0994 -0.5291
22397SOL    HW168632   7.917   7.167   3.961 -1.0986 -0.0961 -0.5887
22397SOL    HW268633   7.838   7.095   4.068  0.1437 -0.1065  0.3398
22398SOL     OW68634   7.428   7.951   3.971 -0.1329  0.3533  0.4117
22398SOL    HW168635   7.366   8.012   3.933  0.5378  0.8683  0.1253
22398SOL    HW268636   7.430   7.877   3.910  0.6577  1.0084 -0.3855
22399SOL     OW68637   7.589   6.550   4.819 -0.7863 -0.0577  0.0651
22399SOL    HW168638   7.524   6.575   4.885 -0.9271 -1.5998  0.5443
22399SOL    HW268639   7.542   6.555   4.736 -1.1084  0.2134  0.2584
22400SOL     OW68640   7.065   7.955   6.043  0.3791 -0.3425  0.4900
22400SOL    HW168641   7.034   8.041   6.015 -1.3045 -1.1990 -0.4399
22400SOL    HW268642   7.152   7.972   6.080 -0.9405  2.1615  2.8616
22401SOL     OW68643   5.560   1.014   4.631  0.4133 -0.7911 -0.2398
22401SOL    HW168644   5.563   1.103   4.665 -0.1156 -0.9174  0.1541
22401SOL    HW268645   5.626   0.966   4.681 -0.2490 -0.9372  0.5097
22402SOL     OW68646   7.221   6.885   4.194  0.4324 -0.4600 -0.0019
22402SOL    HW168647   7.163   6.818   4.156 -2.0849  2.0623 -0.9382
22402SOL    HW268648   7.307   6.865   4.158 -0.7857 -1.5290 -2.5926
22403SOL     OW68649   6.540   5.255   6.163 -0.0818 -1.0037  0.2784
22403SOL    HW168650   6.559   5.349   6.162  1.1440 -1.1329  3.2005
22403SOL    HW268651   6.574   5.223   6.079 -2.1114  1.3359 -1.6022
22404SOL     OW68652   6.035   6.117   4.745 -0.3957 -0.2217  0.0250
22404SOL    HW168653   5.997   6.157   4.824 -3.1327 -0.0146 -1.2773
22404SOL    HW268654   6.052   6.191   4.687 -2.3125 -0.5972 -1.1013
22405SOL     OW68655   7.772   7.910   4.916 -0.2752 -0.2215  0.3201
22405SOL    HW168656   7.699   7.863   4.957 -0.0323  0.2025  1.2477
22405SOL    HW268657   7.829   7.840   4.882 -0.7387 -0.5627  0.2264
22406SOL     OW68658   7.026   7.790   4.897 -0.1575  0.3067  0.6133
22406SOL    HW168659   6.969   7.753   4.965  0.0808 -0.5921  0.3364
22406SOL    HW268660   7.085   7.719   4.874  0.5274  0.9685  0.2882
22407SOL     OW68661   4.365   6.628   6.078 -0.6856  0.3023 -0.6035
22407SOL    HW168662   4.300   6.560   6.096 -0.5539 -0.1930 -1.9204
22407SOL    HW268663   4.411   6.598   6.000  1.8236  0.1590  0.8358
22408SOL     OW68664   6.466   4.882   6.264  0.1139  0.4778  0.2203
22408SOL    HW168665   6.477   4.933   6.184  0.0540 -0.3938 -0.3653
22408SOL    HW268666   6.552   4.885   6.306  1.0491 -1.4346 -1.3699
22409SOL     OW68667   4.933   5.042   3.392  0.2373 -0.7390  0.4871
22409SOL    HW168668   4.870   5.106   3.423  0.7518 -0.6170  1.3102
22409SOL    HW268669   5.018   5.078   3.417  0.5646 -1.4512  0.4304
22410SOL     OW68670   6.953   5.798   5.692 -0.6914  0.2487  0.1949
22410SOL    HW168671   6.954   5.717   5.743  0.4455 -0.0370 -0.2609
22410SOL    HW268672   6.902   5.777   5.614  2.5212 -1.2234 -1.7262
22411SOL     OW68673   5.719   7.413   2.867 -0.0096 -0.0377  0.3161
22411SOL    HW168674   5.700   7.321   2.851  2.0593 -0.4501 -0.1241
22411SOL    HW268675   5.774   7.413   2.945  0.4220  0.7555  0.0304
22412SOL     OW68676   7.013   6.383   4.813 -0.2844 -0.3399  0.1244
22412SOL    HW168677   6.982   6.431   4.890 -0.2798 -1.2678  0.7193
22412SOL    HW268678   7.103   6.412   4.801  0.5459 -1.9192  1.9453
22413SOL     OW68679   6.510   6.186   6.990  1.2380 -0.0707 -0.0068
22413SOL    HW168680   6.479   6.188   6.899  1.5093  0.9516 -0.0878
22413SOL    HW268681   6.437   6.148   7.039  1.9664 -2.9380 -0.9400
22414SOL     OW68682   6.196   6.802   6.033 -0.1014 -0.0305 -0.2351
22414SOL    HW168683   6.249   6.880   6.049 -0.9031  0.6791 -0.9155
22414SOL    HW268684   6.215   6.779   5.942  2.0699 -2.1868  0.6696
22415SOL     OW68685   7.657   5.494   5.025 -0.2197  0.1169  0.1596
22415SOL    HW168686   7.597   5.505   4.952  1.3761  1.0111 -1.0941
22415SOL    HW268687   7.656   5.399   5.042  1.0986 -0.5303 -2.6640
22416SOL     OW68688   7.555   7.789   5.023  0.0856  0.6199 -0.3506
22416SOL    HW168689   7.516   7.790   4.935 -0.9863 -0.9852  0.0715
22416SOL    HW268690   7.527   7.705   5.061 -0.5241  1.8057  2.0001
22417SOL     OW68691   5.049   0.966   5.327 -0.1267  0.3128  0.0290
22417SOL    HW168692   4.964   0.998   5.296 -0.8336  0.4298  1.9921
22417SOL    HW268693   5.107   1.042   5.318 -0.4434  0.5127 -0.4250
22418SOL     OW68694   6.944   6.945   5.376 -0.1647  0.6518  0.8788
22418SOL    HW168695   7.001   6.944   5.453 -0.6694  3.1098  1.3419
22418SOL    HW268696   6.997   6.903   5.307  0.6326 -0.7666  2.2778
22419SOL     OW68697   6.810   5.343   4.779 -0.7470 -0.3397 -0.2165
22419SOL    HW168698   6.804   5.402   4.855 -2.7806 -0.6794 -0.0585
22419SOL    HW268699   6.763   5.265   4.806 -1.1472 -0.6263 -1.6903
22420SOL     OW68700   0.313   6.943   5.172 -0.0754  0.0734  0.1449
22420SOL    HW168701   0.239   6.960   5.113  1.3938  1.0592 -1.4883
22420SOL    HW268702   0.273   6.938   5.259 -1.9467  1.6414 -0.5538
22421SOL     OW68703   5.347   5.187   7.879  0.3925 -0.4060  0.6527
22421SOL    HW168704   5.380   5.102   7.852 -0.6214 -0.3147 -0.9862
22421SOL    HW268705   5.320   5.230   7.798 -1.2115  0.5788  1.6489
22422SOL     OW68706   1.290   7.812   5.383 -0.1295  0.8170  0.4825
22422SOL    HW168707   1.250   7.726   5.393  0.4820  0.2309 -1.5861
22422SOL    HW268708   1.283   7.831   5.289 -0.1063  2.9676  0.8567
22423SOL     OW68709   5.780   7.008   4.482  0.1274 -0.0240 -0.4075
22423SOL    HW168710   5.800   6.943   4.414  1.3545  0.9624 -1.0265
22423SOL    HW268711   5.713   6.966   4.536 -0.6433 -0.9720 -2.0262
22424SOL     OW68712   4.343   1.619   3.553  0.6162 -0.0636  0.2132
22424SOL    HW168713   4.259   1.634   3.596  0.7768  0.6198  0.3071
22424SOL    HW268714   4.395   1.572   3.619  1.0340  1.4206  0.9981
22425SOL     OW68715   7.835   6.913   6.309  0.2087  0.2888 -0.1203
22425SOL    HW168716   7.802   6.891   6.222 -0.1074 -1.0333  0.3007
22425SOL    HW268717   7.766   6.966   6.349 -0.4788 -0.6393 -0.0322
22426SOL     OW68718   7.286   6.238   4.204  0.0394 -0.4457  0.4997
22426SOL    HW168719   7.354   6.302   4.186  0.7742 -1.3588 -0.1067
22426SOL    HW268720   7.333   6.159   4.229 -0.8634 -0.5412  2.0282
22427SOL     OW68721   0.324   0.778   5.431 -0.5518 -0.3671 -0.4770
22427SOL    HW168722   0.339   0.873   5.435  2.1603 -0.7404 -0.0677
22427SOL    HW268723   0.337   0.748   5.521  2.4608 -1.5332 -1.1859
22428SOL     OW68724   3.911   6.243   6.217  0.2746  0.3526  0.2739
22428SOL    HW168725   3.867   6.195   6.147 -0.0480  0.0814  0.6643
22428SOL    HW268726   3.999   6.205   6.221 -0.1995 -0.7131  1.0644
22429SOL     OW68727   6.256   1.121   4.577  0.2538  0.2326  0.0579
22429SOL    HW168728   6.240   1.183   4.506 -0.3030  0.4958  0.4111
22429SOL    HW268729   6.192   1.052   4.563  0.0389  0.3629  0.3969
22430SOL     OW68730   5.369   7.754   5.740 -0.0849 -0.4294  0.1714
22430SOL    HW168731   5.415   7.672   5.723 -0.1417 -0.3343 -0.4579
22430SOL    HW268732   5.438   7.817   5.763  0.1553 -0.1905 -1.1244
22431SOL     OW68733   7.871   6.322   4.589 -0.0206  0.2914  0.7172
22431SOL    HW168734   7.939   6.260   4.561 -0.7123 -0.4198  0.5675
22431SOL    HW268735   7.806   6.267   4.633 -0.7797  0.8812  0.3469
22432SOL     OW68736   7.085   5.532   4.370 -0.1875 -0.2616  0.4590
22432SOL    HW168737   7.040   5.502   4.448 -0.3864 -1.2282 -0.0219
22432SOL    HW268738   7.032   5.500   4.297 -0.0611  0.7149 -0.0816
22433SOL     OW68739   0.272   0.628   4.291  0.3321  0.5090  0.6167
22433SOL    HW168740   0.223   0.569   4.233  0.9498  0.8970 -0.3235
22433SOL    HW268741   0.364   0.608   4.274  0.5352 -0.3841  2.5451
22434SOL     OW68742   6.211   6.531   4.866 -0.1396 -0.4353  0.2432
22434SOL    HW168743   6.240   6.622   4.876 -1.1583 -0.0229 -0.4808
22434SOL    HW268744   6.165   6.529   4.782  1.0144 -1.9313 -0.3982
22435SOL     OW68745   0.602   7.526   4.758  0.7905  0.6986  0.1577
22435SOL    HW168746   0.691   7.521   4.724  1.0659  1.5044  0.7273
22435SOL    HW268747   0.614   7.532   4.853  0.1631  1.6612  0.1807
22436SOL     OW68748   7.845   6.706   3.433  0.4598  0.2129  0.3106
22436SOL    HW168749   7.900   6.744   3.502 -0.2906  2.3136 -0.1845
22436SOL    HW268750   7.763   6.754   3.438 -0.5482 -1.3727 -0.3921
22437SOL     OW68751   0.798   6.032   5.487 -0.1688 -0.0949 -0.5976
22437SOL    HW168752   0.815   6.020   5.581 -0.7439  0.6872 -0.3777
22437SOL    HW268753   0.703   6.027   5.480 -0.0636 -1.1579 -1.3005
22438SOL     OW68754   7.028   6.934   2.626 -0.0673  0.1126 -0.6087
22438SOL    HW168755   6.955   6.885   2.664 -1.8512  2.2263 -1.1079
22438SOL    HW268756   7.054   6.995   2.695  0.1839  0.4167 -0.9689
22439SOL     OW68757   6.374   1.300   4.984 -0.1101  0.0678 -0.2938
22439SOL    HW168758   6.402   1.336   4.900 -0.1476 -0.3897 -0.5005
22439SOL    HW268759   6.343   1.377   5.033  1.0770  0.5156 -0.2220
22440SOL     OW68760   7.747   7.525   4.262  0.6540 -0.2170  0.8137
22440SOL    HW168761   7.712   7.449   4.309 -0.0714 -0.9680 -0.8850
22440SOL    HW268762   7.725   7.600   4.318 -1.5512 -0.9127  0.9888
22441SOL     OW68763   5.863   5.416   4.653 -0.2901  0.3715 -0.0902
22441SOL    HW168764   5.901   5.341   4.698 -0.3470  0.9009  0.8832
22441SOL    HW268765   5.927   5.439   4.586  0.3337  0.2363  0.4438
22442SOL     OW68766   7.509   6.108   3.527 -0.6361 -0.1138  0.1851
22442SOL    HW168767   7.436   6.092   3.467 -0.2699 -1.8206  0.1587
22442SOL    HW268768   7.576   6.045   3.501  0.5134  0.8104  0.8005
22443SOL     OW68769   0.045   7.433   3.442  0.0880  0.1170  0.6347
22443SOL    HW168770   0.135   7.442   3.410 -0.1583  1.2605  0.1973
22443SOL    HW268771   0.020   7.343   3.422  0.1042  0.6419 -2.0354
22444SOL     OW68772   7.045   0.081   4.441 -0.2496  0.1153  0.0962
22444SOL    HW168773   6.973   0.035   4.485 -0.0127 -0.3885 -0.0309
22444SOL    HW268774   7.086   0.013   4.386 -0.2015  0.5954 -0.4747
22445SOL     OW68775   6.668   6.385   5.752 -0.4618 -0.2124  0.2485
22445SOL    HW168776   6.718   6.430   5.684 -1.0484 -0.5755 -0.4420
22445SOL    HW268777   6.733   6.363   5.819  0.4633 -1.3690 -0.9775
22446SOL     OW68778   6.452   5.558   4.367 -0.0437 -0.4367  0.7576
22446SOL    HW168779   6.433   5.466   4.346  0.4651 -0.7704  1.6963
22446SOL    HW268780   6.541   5.571   4.334 -0.5710  0.0983 -0.5004
22447SOL     OW68781   5.773   6.392   7.223 -0.5949 -0.1982 -0.3352
22447SOL    HW168782   5.781   6.487   7.229 -0.1247 -0.2144 -0.6085
22447SOL    HW268783   5.683   6.377   7.196 -0.5373  0.1972 -0.7627
22448SOL     OW68784   4.889   0.475   6.701 -0.4234 -0.0987 -0.2743
22448SOL    HW168785   4.899   0.387   6.737 -0.1962  0.2458  0.5255
22448SOL    HW268786   4.911   0.466   6.608  1.6875 -0.4959  0.2224
22449SOL     OW68787   6.404   5.986   5.773 -0.4910  0.5061 -0.0455
22449SOL    HW168788   6.310   6.003   5.782 -0.4502  1.0892 -0.6562
22449SOL    HW268789   6.442   6.071   5.752  0.0524  0.0982 -0.7331
22450SOL     OW68790   0.788   7.844   6.444 -0.7019  0.1337 -0.0180
22450SOL    HW168791   0.834   7.778   6.497 -1.3439  1.3025  2.0994
22450SOL    HW268792   0.756   7.796   6.368  1.0865 -1.4231  0.1426
22451SOL     OW68793   6.078   5.675   5.506 -0.4850  0.5558  0.0181
22451SOL    HW168794   6.008   5.664   5.571 -0.7804  1.0799 -0.2085
22451SOL    HW268795   6.122   5.590   5.505  0.7937  1.1040  2.3566
22452SOL     OW68796   6.818   7.568   7.611 -0.2873  0.2644 -0.4025
22452SOL    HW168797   6.851   7.489   7.567 -1.9410 -0.9270  0.3938
22452SOL    HW268798   6.743   7.596   7.558 -0.7714  0.2758  0.2730
22453SOL     OW68799   7.221   5.171   6.791 -0.3049 -0.2726 -0.0757
22453SOL    HW168800   7.272   5.116   6.732 -0.1948 -1.4364  1.0580
22453SOL    HW268801   7.140   5.123   6.805 -0.5294  0.2183  0.3380
22454SOL     OW68802   4.709   6.477   7.956  0.5396 -0.6024 -0.1669
22454SOL    HW168803   4.763   6.487   8.034  1.0496 -3.2613 -0.1041
22454SOL    HW268804   4.771   6.477   7.883  0.2600 -0.2161 -0.4117
22455SOL     OW68805   7.323   6.286   6.336 -0.4588  0.1812 -0.0492
22455SOL    HW168806   7.293   6.199   6.363  0.5058 -0.1702 -0.0631
22455SOL    HW268807   7.246   6.327   6.298 -0.3592 -1.5945 -2.3761
22456SOL     OW68808   5.888   7.293   6.618  0.5527  0.3779 -0.2847
22456SOL    HW168809   5.806   7.324   6.655  0.6824 -2.5659  3.0252
22456SOL    HW268810   5.956   7.348   6.658  0.3973  0.1126  0.3614
22457SOL     OW68811   6.844   6.321   7.197 -0.5392 -0.3667 -0.1080
22457SOL    HW168812   6.777   6.261   7.228 -0.8148 -0.2270 -0.4239
22457SOL    HW268813   6.807   6.360   7.118 -0.6986  0.8135  0.5250
22458SOL     OW68814   7.308   5.760   6.450 -0.2566  0.5966 -0.2867
22458SOL    HW168815   7.306   5.799   6.537 -1.2684 -0.9839  0.4294
22458SOL    HW268816   7.328   5.668   6.465  0.9433  0.5625 -1.8503
22459SOL     OW68817   1.498   7.064   4.399  0.0489  0.0617 -0.3774
22459SOL    HW168818   1.440   7.139   4.408 -1.0367 -0.8695  0.8709
22459SOL    HW268819   1.465   7.016   4.323  0.7344  0.8090 -1.1652
22460SOL     OW68820   6.742   6.293   6.426  0.1669 -0.4376 -0.1102
22460SOL    HW168821   6.749   6.216   6.369  0.8499  0.1127 -0.7894
22460SOL    HW268822   6.657   6.283   6.469 -0.2045 -1.0594 -0.9536
22461SOL     OW68823   0.107   7.014   8.475  0.2101  0.2916  0.5252
22461SOL    HW168824   0.155   6.949   8.423  0.8966  0.4637  0.9299
22461SOL    HW268825   0.018   6.979   8.480  0.8948 -1.4122  1.9620
22462SOL     OW68826   6.887   1.371   5.486 -0.4730 -0.1468  0.1026
22462SOL    HW168827   6.865   1.431   5.557  0.6686  1.5014 -0.8883
22462SOL    HW268828   6.957   1.316   5.521  0.9901  1.5089 -0.1045
22463SOL     OW68829   5.270   6.974   6.638 -0.0961  0.0141 -0.4248
22463SOL    HW168830   5.196   6.969   6.578 -0.3491 -0.4961 -0.0755
22463SOL    HW268831   5.343   6.934   6.590 -0.4296 -0.8701 -0.1936
22464SOL     OW68832   6.041   7.858   5.859 -0.4245  0.3006  0.1709
22464SOL    HW168833   6.127   7.881   5.895 -0.6723 -1.5947  2.1709
22464SOL    HW268834   5.979   7.905   5.915 -0.7590 -1.1356  1.0436
22465SOL     OW68835   4.455   5.719   2.158  0.0552 -0.2736  0.1563
22465SOL    HW168836   4.487   5.785   2.219 -0.4711  0.1078  0.0220
22465SOL    HW268837   4.475   5.756   2.071 -1.5421  0.4005  0.0379
22466SOL     OW68838   5.240   5.508   6.990 -0.4319 -0.5686  0.1218
22466SOL    HW168839   5.168   5.466   7.037 -0.0798  0.1246  1.3406
22466SOL    HW268840   5.236   5.600   7.017 -0.6603  0.0234 -1.8175
22467SOL     OW68841   4.313   4.867   5.759 -0.1789  0.6528 -0.3952
22467SOL    HW168842   4.231   4.906   5.790 -1.4653 -0.5758 -2.0831
22467SOL    HW268843   4.321   4.897   5.668 -0.3965 -1.6568 -1.2369
22468SOL     OW68844   0.715   7.065   5.260 -0.2633 -0.3613 -0.0940
22468SOL    HW168845   0.682   6.997   5.201  0.0727 -0.3419 -0.3071
22468SOL    HW268846   0.810   7.056   5.257 -0.2695 -1.4452  1.7489
22469SOL     OW68847   6.653   0.732   5.334 -0.2432  1.0139 -0.0961
22469SOL    HW168848   6.630   0.819   5.301  0.1060  1.3328  0.4907
22469SOL    HW268849   6.718   0.748   5.402  1.0876  0.1751 -1.1324
22470SOL     OW68850   0.773   6.429   7.246  0.7389  1.0892 -0.2336
22470SOL    HW168851   0.698   6.372   7.231  1.2662 -0.1054  1.4481
22470SOL    HW268852   0.841   6.396   7.188  1.7060 -1.4039  2.1291
22471SOL     OW68853   5.049   7.961   8.867  0.1404 -0.1883 -0.7755
22471SOL    HW168854   5.091   7.913   8.795 -0.4321 -0.2208 -1.1008
22471SOL    HW268855   4.955   7.949   8.851 -0.0870  2.1905 -1.6949
22472SOL     OW68856   6.684   5.951   6.853  0.0949 -0.5864  0.1208
22472SOL    HW168857   6.699   5.923   6.943  0.8924  0.4672  0.3432
22472SOL    HW268858   6.718   6.041   6.850  0.5823 -0.7950 -1.3670
22473SOL     OW68859   6.052   5.308   7.484 -0.2534  0.7728 -0.1051
22473SOL    HW168860   6.083   5.394   7.458  0.0529  1.5187  2.4779
22473SOL    HW268861   5.974   5.325   7.537  0.4924 -0.4124  1.4611
22474SOL     OW68862   6.545   6.350   6.600  0.0385 -0.5876 -0.0363
22474SOL    HW168863   6.492   6.376   6.525  0.2437 -1.4800 -0.5028
22474SOL    HW268864   6.482   6.309   6.660 -0.1986  0.4999  0.4802
22475SOL     OW68865   6.642   7.989   4.978 -0.0894  0.1832  0.1473
22475SOL    HW168866   6.619   8.060   5.038  0.6503  0.2132  0.4012
22475SOL    HW268867   6.729   7.962   5.006 -0.3270 -0.7625 -0.0094
22476SOL     OW68868   7.581   7.304   6.653 -0.2233 -0.0588 -0.0442
22476SOL    HW168869   7.655   7.246   6.635  0.5757  0.4535  1.4027
22476SOL    HW268870   7.515   7.247   6.692  0.2880 -0.1354  0.7299
22477SOL     OW68871   6.159   5.646   8.856  0.2998 -0.2018 -0.8039
22477SOL    HW168872   6.173   5.598   8.938 -0.0518  1.8121  0.5226
22477SOL    HW268873   6.241   5.693   8.841  0.0537  0.1455 -1.0848
22478SOL     OW68874   6.283   6.077   7.140  0.3952  0.1451 -0.1218
22478SOL    HW168875   6.264   5.984   7.139 -0.5230  0.3230 -0.1713
22478SOL    HW268876   6.245   6.109   7.222  0.1368  0.5903 -0.4097
22479SOL     OW68877   6.311   0.072   5.980  0.6132 -0.2405 -0.1767
22479SOL    HW168878   6.267   0.147   5.939  2.0860 -0.2914 -2.0005
22479SOL    HW268879   6.393   0.108   6.015  1.2343 -0.9174 -0.8772
22480SOL     OW68880   6.422   6.010   5.387  0.4759  0.7241 -0.2153
22480SOL    HW168881   6.382   5.960   5.316  1.6372 -0.9272  0.2261
22480SOL    HW268882   6.424   5.949   5.461 -0.3923  2.2834  1.1551
22481SOL     OW68883   7.355   0.102   6.460 -0.7478 -0.3668 -0.4876
22481SOL    HW168884   7.294   0.061   6.399  1.2340 -3.4433 -0.6448
22481SOL    HW268885   7.439   0.103   6.413 -0.2901  2.5275  0.1737
22482SOL     OW68886   6.299   7.279   5.475 -0.0445  0.5728 -0.0480
22482SOL    HW168887   6.324   7.294   5.566  1.9983  0.8714 -0.6170
22482SOL    HW268888   6.289   7.367   5.438 -0.9942  0.4530 -0.1088
22483SOL     OW68889   6.146   6.571   6.403 -0.0932 -0.2739  0.3754
22483SOL    HW168890   6.113   6.511   6.336 -3.4202 -0.3316  1.8941
22483SOL    HW268891   6.103   6.655   6.382 -0.3545 -0.0347  1.8138
22484SOL     OW68892   0.402   5.045   6.851 -0.4545 -0.0093  0.1696
22484SOL    HW168893   0.386   5.122   6.906  1.7801  1.2893 -0.8513
22484SOL    HW268894   0.354   5.064   6.770  1.1190  1.0076 -0.5789
22485SOL     OW68895   6.731   6.102   9.091  0.2041  0.4271 -0.0250
22485SOL    HW168896   6.753   6.080   9.001 -0.3434  0.3525 -0.1473
22485SOL    HW268897   6.800   6.161   9.120 -0.5733  1.9051 -1.0861
22486SOL     OW68898   5.933   5.941   8.608 -0.2417 -0.5956  0.2073
22486SOL    HW168899   5.958   5.849   8.608 -0.8096 -0.7533  0.0236
22486SOL    HW268900   6.012   5.988   8.580 -0.3293 -1.1395 -1.0356
22487SOL     OW68901   7.678   7.823   6.611 -0.2989 -0.5340  0.2745
22487SOL    HW168902   7.757   7.780   6.578 -0.0716 -1.0414  1.4411
22487SOL    HW268903   7.627   7.844   6.532  0.2799 -1.5995 -0.3964
22488SOL     OW68904   4.289   7.083   6.034  0.2065 -0.2147 -0.1766
22488SOL    HW168905   4.282   7.009   5.974 -0.6590 -0.1828 -0.1286
22488SOL    HW268906   4.375   7.074   6.074  1.4080  0.4918 -2.3918
22489SOL     OW68907   4.118   7.409   6.805  0.3056 -0.1063 -0.8277
22489SOL    HW168908   4.174   7.473   6.849 -0.4827  0.6434 -0.8900
22489SOL    HW268909   4.170   7.329   6.803  0.5673 -0.0209  0.9993
22490SOL     OW68910   6.027   4.649   5.332 -0.5694 -0.0689  0.0446
22490SOL    HW168911   5.938   4.684   5.327 -0.7582 -0.4509  0.6130
22490SOL    HW268912   6.036   4.594   5.254 -0.5638  0.5693 -0.4091
22491SOL     OW68913   0.134   4.082   6.290 -0.7789  0.1221  0.0325
22491SOL    HW168914   0.159   3.994   6.317  0.1096  0.5012  0.4926
22491SOL    HW268915   0.142   4.134   6.370 -0.6408  0.7519 -0.3893
22492SOL     OW68916   5.907   0.437   6.824  0.2706  0.0510  0.2227
22492SOL    HW168917   5.911   0.503   6.894 -2.8573  1.0347 -0.4014
22492SOL    HW268918   5.907   0.487   6.743 -1.9956 -0.6536 -0.2746
22493SOL     OW68919   5.416   6.807   6.493  0.0753  0.1010 -0.1935
22493SOL    HW168920   5.331   6.809   6.448  0.5666  0.8044 -1.1375
22493SOL    HW268921   5.480   6.799   6.422  0.7745 -1.3289  0.5596
22494SOL     OW68922   4.966   6.949   6.596 -0.3780 -0.2773 -0.4179
22494SOL    HW168923   4.876   6.927   6.570 -0.5999  0.0496  0.0517
22494SOL    HW268924   5.015   6.949   6.514 -1.1936  1.4021 -0.9538
22495SOL     OW68925   5.208   0.577   6.152  0.2358  0.1755  0.3699
22495SOL    HW168926   5.126   0.531   6.133  0.5298 -0.6268  0.9836
22495SOL    HW268927   5.250   0.525   6.220 -1.3849  3.5782  4.4084
22496SOL     OW68928   0.107   6.635   6.747 -0.8848 -0.6981  0.9575
22496SOL    HW168929   0.013   6.649   6.735 -0.6027  0.4670 -0.2429
22496SOL    HW268930   0.134   6.586   6.669 -0.0283  1.6706 -0.3712
22497SOL     OW68931   6.112   6.040   5.777  0.4484 -0.1572 -0.0303
22497SOL    HW168932   6.096   5.954   5.817 -1.6481 -0.4685 -1.4122
22497SOL    HW268933   6.030   6.088   5.789  1.4767  1.5638  0.4177
22498SOL     OW68934   0.156   6.460   5.277  0.1164  0.0446 -0.0334
22498SOL    HW168935   0.146   6.438   5.369  0.6948 -0.0607  0.0057
22498SOL    HW268936   0.205   6.387   5.239 -0.9709 -0.4046 -0.6489
22499SOL     OW68937   0.790   4.898   6.680 -0.3324  0.1464 -0.1400
22499SOL    HW168938   0.846   4.938   6.747  0.4602 -1.5535  0.2839
22499SOL    HW268939   0.727   4.966   6.656  1.6591  2.0262 -0.3368
22500SOL     OW68940   5.925   6.348   7.475 -0.4637 -0.4208  0.2343
22500SOL    HW168941   5.953   6.257   7.483 -0.4563 -0.5287 -0.8152
22500SOL    HW268942   5.884   6.353   7.388 -0.0406  0.6827  0.0785
22501SOL     OW68943   7.900   7.649   5.168  0.3093  0.5080  0.3080
22501SOL    HW168944   7.862   7.658   5.256 -0.6595 -1.8736  0.2077
22501SOL    HW268945   7.863   7.567   5.134  2.3244  0.2565 -1.4882
22502SOL     OW68946   5.314   5.720   6.769  0.1713 -0.2662  0.3648
22502SOL    HW168947   5.225   5.754   6.761  0.1794 -0.0741  1.0331
22502SOL    HW268948   5.358   5.747   6.688 -0.4607 -0.6249 -0.1009
22503SOL     OW68949   0.011   7.222   6.046 -0.5559  0.2107 -0.1769
22503SOL    HW168950  -0.046   7.166   5.993  1.1324  0.4164 -2.3332
22503SOL    HW268951   0.072   7.261   5.984  0.6956  1.5632  1.7701
22504SOL     OW68952   6.491   7.181   6.632  0.4872 -0.4042 -0.2802
22504SOL    HW168953   6.438   7.260   6.627  0.1087 -0.6548 -0.3049
22504SOL    HW268954   6.428   7.110   6.620  0.7351 -0.7281  0.3249
22505SOL     OW68955   7.269   5.836   6.190 -0.5948  0.2372 -0.7149
22505SOL    HW168956   7.292   5.812   6.279 -2.5556 -1.1299 -0.5040
22505SOL    HW268957   7.323   5.912   6.170  1.0286 -0.3991  1.0498
22506SOL     OW68958   7.348   0.748   6.384 -0.0956  0.3465  0.9826
22506SOL    HW168959   7.336   0.661   6.346  1.2342 -0.2447  1.8327
22506SOL    HW268960   7.364   0.731   6.477 -0.5212  1.5604  1.2888
22507SOL     OW68961   5.225   0.170   5.854 -0.5710  0.1182 -0.1755
22507SOL    HW168962   5.243   0.137   5.766 -0.3379 -0.6272  0.1395
22507SOL    HW268963   5.130   0.162   5.865 -0.7743  1.3822 -0.7996
22508SOL     OW68964   7.477   3.623   5.480 -0.5882 -0.6191  0.1157
22508SOL    HW168965   7.537   3.652   5.412 -0.6764  2.4530  1.2160
22508SOL    HW268966   7.393   3.611   5.435  0.0122 -1.5568 -0.7995
22509SOL     OW68967   6.260   4.692   5.212 -0.8296  0.5080 -0.2632
22509SOL    HW168968   6.262   4.627   5.142 -0.0412 -0.4964  0.6500
22509SOL    HW268969   6.169   4.692   5.242 -0.2584 -2.7148  1.9356
22510SOL     OW68970   6.753   7.040   6.338 -0.9293 -0.0699  0.2574
22510SOL    HW168971   6.714   7.127   6.345  0.1872  0.6440 -1.6479
22510SOL    HW268972   6.809   7.032   6.415 -0.3781  1.2749  0.0160
22511SOL     OW68973   4.808   0.143   6.509  0.0459  0.6403  0.0181
22511SOL    HW168974   4.889   0.148   6.560 -0.9167  0.2506  1.6207
22511SOL    HW268975   4.810   0.056   6.470  1.0204  1.1190 -1.0736
22512SOL     OW68976   7.916   4.828   7.474 -0.2500  0.0300 -0.3324
22512SOL    HW168977   7.854   4.764   7.438 -1.7914  2.0122 -1.3919
22512SOL    HW268978   7.981   4.839   7.404  0.4182 -0.8364  0.1283
22513SOL     OW68979   5.556   7.663   6.760  0.2222 -0.4645 -0.2244
22513SOL    HW168980   5.470   7.676   6.799  0.3620 -0.8944  0.2323
22513SOL    HW268981   5.538   7.640   6.669 -0.1687 -1.1897  0.0309
22514SOL     OW68982   5.160   0.209   7.106 -0.1133  0.4043 -1.0463
22514SOL    HW168983   5.127   0.187   7.193 -1.3676  2.8434 -0.8171
22514SOL    HW268984   5.255   0.196   7.112 -0.3907 -1.4854 -0.0144
22515SOL     OW68985   7.383   6.494   7.624  0.2267  0.7954  0.4481
22515SOL    HW168986   7.372   6.588   7.642  0.5609  0.7401  0.9549
22515SOL    HW268987   7.317   6.451   7.677 -2.5067  0.9212 -2.5292
22516SOL     OW68988   7.097   5.252   4.765  0.1675 -0.3514  0.0200
22516SOL    HW168989   7.148   5.200   4.703  1.6233 -0.6122  1.3931
22516SOL    HW268990   7.007   5.248   4.731  1.1351  1.1734 -3.2005
22517SOL     OW68991   4.171   6.020   7.477  0.3307 -0.0411 -0.3040
22517SOL    HW168992   4.155   6.040   7.570  1.6355 -0.3588  0.0177
22517SOL    HW268993   4.197   6.103   7.438 -0.2194  0.0931 -0.3853
22518SOL     OW68994   6.838   4.800   7.076  0.1887  0.0297  0.2291
22518SOL    HW168995   6.882   4.774   6.995 -0.9209  1.0565 -0.7659
22518SOL    HW268996   6.818   4.718   7.121  0.2456 -0.5977 -0.8628
22519SOL     OW68997   0.564   5.466   7.904 -0.5741  0.1127 -0.1543
22519SOL    HW168998   0.597   5.403   7.840 -0.9655  0.6839 -0.9364
22519SOL    HW268999   0.632   5.471   7.970  0.4090  0.4243 -1.1501
22520SOL     OW69000   6.299   5.871   6.444  0.3289 -0.4634  0.0160
22520SOL    HW169001   6.327   5.891   6.533 -0.9235 -0.2536  0.3806
22520SOL    HW269002   6.247   5.947   6.418  1.1262 -0.2849 -1.1001
22521SOL     OW69003   7.346   4.370   6.464 -0.5430 -0.2816  0.1880
22521SOL    HW169004   7.430   4.416   6.469  0.3296 -1.6753 -0.8869
22521SOL    HW269005   7.281   4.439   6.453  0.9432  0.7398 -4.3024
22522SOL     OW69006   6.781   6.205   6.877 -0.1227 -0.7879 -0.4516
22522SOL    HW169007   6.697   6.239   6.908  0.3068 -1.1111  1.1193
22522SOL    HW269008   6.807   6.267   6.808 -1.0241  0.0630 -0.0568
22523SOL     OW69009   0.179   5.342   6.450  0.3861 -0.0910  0.5186
22523SOL    HW169010   0.262   5.388   6.438  0.0990  0.0369 -1.2181
22523SOL    HW269011   0.156   5.309   6.363  0.0366 -2.6488  1.4862
22524SOL     OW69012   5.036   5.028   8.082  0.5987  0.4069  0.4027
22524SOL    HW169013   4.955   5.066   8.117 -0.3368 -0.8137 -0.3194
22524SOL    HW269014   5.009   4.991   7.997  0.7151 -4.2094  2.1240
22525SOL     OW69015   7.413   5.343   6.842  0.0173 -0.0557 -0.0919
22525SOL    HW169016   7.337   5.285   6.840  0.3781 -0.5030 -1.3813
22525SOL    HW269017   7.483   5.293   6.800  0.5602  0.9922 -0.4708
22526SOL     OW69018   6.262   5.459   5.475  0.1850  0.1508  0.0464
22526SOL    HW169019   6.237   5.407   5.551  0.6496  0.3026  0.3071
22526SOL    HW269020   6.299   5.395   5.414 -0.1476  0.0348 -0.0333
22527SOL     OW69021   0.346   4.458   6.357  0.0864  0.0916  0.3519
22527SOL    HW169022   0.407   4.501   6.416  0.0984  1.2855 -0.4818
22527SOL    HW269023   0.284   4.413   6.414  1.5320 -0.8740  1.2137
22528SOL     OW69024   6.495   7.005   5.226 -0.2168  0.1226  0.3120
22528SOL    HW169025   6.574   6.951   5.224 -1.0962 -1.2396  0.7370
22528SOL    HW269026   6.523   7.086   5.271  1.2704  0.3193 -0.8730
22529SOL     OW69027   0.320   4.237   6.149  0.2991 -0.4361 -0.0247
22529SOL    HW169028   0.233   4.205   6.173  0.5846 -1.5580 -0.4407
22529SOL    HW269029   0.336   4.309   6.210 -0.5014 -0.8681  0.7233
22530SOL     OW69030   7.965   4.497   6.101 -0.7852 -0.0750  0.1741
22530SOL    HW169031   7.949   4.517   6.009  0.5726  0.9085  0.1193
22530SOL    HW269032   7.923   4.412   6.115 -2.6611  0.6367 -0.8303
22531SOL     OW69033   7.714   5.523   5.849 -0.1241 -0.1076  0.1083
22531SOL    HW169034   7.750   5.594   5.902 -1.8047 -0.3581  1.6599
22531SOL    HW269035   7.687   5.566   5.768  3.1575  0.1541 -0.9994
22532SOL     OW69036   7.833   6.675   6.699  0.5777  0.3625  0.6845
22532SOL    HW169037   7.804   6.664   6.608  1.8367  1.3568  0.1382
22532SOL    HW269038   7.810   6.593   6.742 -1.5054  0.4660 -0.1165
22533SOL     OW69039   5.477   5.818   5.741 -0.1922  0.0169 -0.0955
22533SOL    HW169040   5.459   5.740   5.793 -0.4976  0.1495  0.0004
22533SOL    HW269041   5.424   5.807   5.662  0.5978 -0.3867 -0.5739
22534SOL     OW69042   6.040   5.707   5.248 -0.0667  0.1641 -0.1760
22534SOL    HW169043   6.061   5.708   5.342  1.2233  1.5251 -0.4383
22534SOL    HW269044   6.033   5.800   5.225 -0.7872 -0.1635 -1.3556
22535SOL     OW69045   6.586   6.651   6.887 -0.0240 -0.2181 -0.2546
22535SOL    HW169046   6.532   6.713   6.837  1.0436  0.4481 -0.6141
22535SOL    HW269047   6.627   6.596   6.820 -2.3311 -2.5788  0.0991
22536SOL     OW69048   7.006   7.652   6.937 -0.3722 -0.7916  0.3901
22536SOL    HW169049   7.094   7.627   6.910 -0.6337  0.3031 -1.7000
22536SOL    HW269050   6.948   7.604   6.878 -1.1310 -0.7496  1.0864
22537SOL     OW69051   7.107   7.338   6.771 -0.0826 -0.1551  0.1006
22537SOL    HW169052   7.128   7.253   6.732 -2.5030 -0.3791 -0.8438
22537SOL    HW269053   7.161   7.400   6.723 -0.5811 -0.8222 -1.4036
22538SOL     OW69054   5.745   5.261   8.185 -0.1829 -0.2014  0.0571
22538SOL    HW169055   5.792   5.182   8.213  0.2394  0.0235 -0.0049
22538SOL    HW269056   5.655   5.247   8.212 -0.0141 -0.5021  0.4636
22539SOL     OW69057   7.200   5.674   5.448  0.2322 -0.0494 -0.5312
22539SOL    HW169058   7.192   5.616   5.524 -0.7024  0.4898 -0.2115
22539SOL    HW269059   7.225   5.758   5.485 -2.5962  0.8681 -0.5298
22540SOL     OW69060   4.595   7.015   7.620 -0.6771  0.3066  0.3364
22540SOL    HW169061   4.588   7.108   7.642  0.1141  0.5236 -0.3061
22540SOL    HW269062   4.606   6.971   7.705 -2.8551  0.5806  0.8240
22541SOL     OW69063   7.410   5.515   7.901 -0.5786  0.4506  0.2016
22541SOL    HW169064   7.379   5.527   7.991  0.4712 -0.0365  0.6410
22541SOL    HW269065   7.504   5.498   7.910 -0.5594 -0.1171 -0.9493
22542SOL     OW69066   7.976   5.693   6.734  0.6096 -0.1559  0.1661
22542SOL    HW169067   7.898   5.638   6.730  0.5623 -0.0341 -0.9423
22542SOL    HW269068   8.018   5.670   6.817 -0.1885 -0.7790  0.4076
22543SOL     OW69069   5.379   5.911   6.564  0.2287 -0.0497  0.0816
22543SOL    HW169070   5.429   5.906   6.482  0.9633  0.2120  0.5088
22543SOL    HW269071   5.332   5.994   6.559 -0.7610 -0.6300 -0.6483
22544SOL     OW69072   7.177   5.810   8.410 -0.3081  0.0183  0.1616
22544SOL    HW169073   7.222   5.885   8.371  2.1332 -1.4359 -0.0251
22544SOL    HW269074   7.190   5.820   8.504  0.3601 -0.3302  0.1153
22545SOL     OW69075   5.591   6.645   7.330 -0.3707 -0.7748  0.3099
22545SOL    HW169076   5.590   6.662   7.424 -0.2710  0.3724  0.1155
22545SOL    HW269077   5.502   6.615   7.310 -1.5787  2.5293  0.1922
22546SOL     OW69078   6.011   7.222   4.762  0.0913  0.1541  0.2114
22546SOL    HW169079   5.982   7.305   4.801 -1.6882 -0.5468  0.4825
22546SOL    HW269080   5.949   7.157   4.795 -0.1222 -0.8698 -1.9964
22547SOL     OW69081   5.431   6.151   6.733  0.3024  0.7389 -0.0230
22547SOL    HW169082   5.388   6.181   6.653  1.2203 -0.5304 -1.0280
22547SOL    HW269083   5.484   6.076   6.706  1.4365  0.8970  1.5914
22548SOL     OW69084   5.371   0.434   5.738 -0.8929  0.6149  0.4239
22548SOL    HW169085   5.343   0.368   5.801 -1.0097  1.0958  0.8800
22548SOL    HW269086   5.430   0.491   5.788  0.4745 -0.0521 -0.3619
22549SOL     OW69087   5.432   5.572   7.303  0.0297 -0.3161 -0.0840
22549SOL    HW169088   5.422   5.478   7.285  0.3176 -0.3574 -0.0220
22549SOL    HW269089   5.356   5.593   7.359  0.1164 -0.5743  0.1338
22550SOL     OW69090   0.489   7.064   3.805  0.2335 -0.0152 -0.5890
22550SOL    HW169091   0.567   7.031   3.849 -0.1029 -0.7984 -0.5643
22550SOL    HW269092   0.512   7.066   3.712 -0.0964 -1.3723 -0.7171
22551SOL     OW69093   6.271   5.621   5.096  0.3437 -0.1942 -0.8583
22551SOL    HW169094   6.199   5.664   5.142  0.8186  0.5774 -0.8303
22551SOL    HW269095   6.231   5.541   5.060 -0.2214 -0.4029  0.1902
22552SOL     OW69096   4.951   6.063   8.255 -0.2606  0.7283  0.1761
22552SOL    HW169097   4.966   5.982   8.207  1.4325  0.6197  0.8236
22552SOL    HW269098   4.862   6.054   8.289 -0.3033 -0.6075 -0.2296
22553SOL     OW69099   6.892   6.993   6.993  0.4219  0.5405  0.0793
22553SOL    HW169100   6.867   6.901   7.004  0.4467  0.4519 -0.5706
22553SOL    HW269101   6.938   7.015   7.074  0.9031 -0.1796  0.0155
22554SOL     OW69102   7.000   3.123   6.758 -0.3859 -0.1064 -0.5565
22554SOL    HW169103   6.973   3.210   6.788  1.3741  0.9769 -1.8931
22554SOL    HW269104   6.977   3.065   6.830 -2.5023  1.2802  0.0011
22555SOL     OW69105   4.960   6.929   7.660  0.4029  0.0755 -0.3073
22555SOL    HW169106   4.972   6.850   7.714 -1.0158 -2.2647 -3.1497
22555SOL    HW269107   4.867   6.948   7.665  0.2109 -0.2867 -1.9627
22556SOL     OW69108   6.614   6.205   8.145 -0.0246 -0.3888 -0.4243
22556SOL    HW169109   6.609   6.292   8.184  0.5650 -0.2698 -0.6101
22556SOL    HW269110   6.622   6.220   8.051  1.6522 -0.5750 -0.3502
22557SOL     OW69111   0.453   5.446   6.467 -0.5824 -0.1584 -0.1755
22557SOL    HW169112   0.417   5.532   6.490 -1.4582 -0.7018  0.5888
22557SOL    HW269113   0.501   5.461   6.386  0.3351  1.3014  0.5906
22558SOL     OW69114   0.068   5.280   6.179  0.3399  0.0452  0.5710
22558SOL    HW169115  -0.004   5.303   6.238  0.1210 -1.7178  1.0284
22558SOL    HW269116   0.026   5.230   6.109  1.1689 -1.3774  1.0664
22559SOL     OW69117   5.555   6.862   6.873  0.0169 -0.0877  0.2920
22559SOL    HW169118   5.524   6.798   6.809  0.6819  1.3102 -1.5218
22559SOL    HW269119   5.629   6.905   6.830 -0.4503  1.9393  1.3973
22560SOL     OW69120   5.685   7.989   4.673 -0.4062 -0.2615  0.1872
22560SOL    HW169121   5.598   7.950   4.679 -1.0676  0.8888 -1.1800
22560SOL    HW269122   5.684   8.059   4.739  0.4278 -1.8485  1.9454
22561SOL     OW69123   6.610   7.723   7.225 -0.1652 -0.5545  0.1204
22561SOL    HW169124   6.591   7.715   7.318  0.1307  0.7199  0.3081
22561SOL    HW269125   6.593   7.636   7.190 -0.7340 -0.9326  1.2758
22562SOL     OW69126   4.639   5.063   4.858  0.1984 -0.0506  0.1228
22562SOL    HW169127   4.660   5.103   4.773  1.4673  0.0433  0.4628
22562SOL    HW269128   4.710   5.001   4.873  0.9298  1.1453  1.8936
22563SOL     OW69129   7.933   7.016   5.890  0.1671  0.2251  0.4039
22563SOL    HW169130   7.979   7.043   5.810  0.6178  0.4135  0.7230
22563SOL    HW269131   7.908   6.925   5.873  0.3988  0.2132  0.1115
22564SOL     OW69132   6.794   6.000   6.348 -0.0348 -0.1894  0.9125
22564SOL    HW169133   6.840   5.927   6.390  0.3331 -0.4872  0.0224
22564SOL    HW269134   6.702   5.974   6.350 -0.4712  1.1925  4.2696
22565SOL     OW69135   4.419   7.599   5.995 -0.0087  0.2860  0.3837
22565SOL    HW169136   4.400   7.688   6.026  0.7895  1.0098 -1.0753
22565SOL    HW269137   4.453   7.554   6.072  0.4389  1.5311  0.9493
22566SOL     OW69138   6.874   7.193   5.344  0.0809 -0.0847 -0.1798
22566SOL    HW169139   6.931   7.247   5.399 -0.2853 -0.3754  0.5109
22566SOL    HW269140   6.898   7.103   5.366 -0.6758 -0.2117  0.1779
22567SOL     OW69141   5.851   7.305   7.630 -0.3378 -0.1699 -0.0584
22567SOL    HW169142   5.849   7.399   7.613 -1.6881 -0.2829 -0.6675
22567SOL    HW269143   5.801   7.294   7.711 -0.9544 -0.4481 -0.4728
22568SOL     OW69144   5.645   6.847   7.768  0.3892  0.4229 -0.2729
22568SOL    HW169145   5.564   6.892   7.743  0.6005  1.1697  0.3690
22568SOL    HW269146   5.654   6.778   7.702  1.0125  2.4226 -2.4047
22569SOL     OW69147   5.066   6.311   6.070 -0.2727  0.5657  0.0264
22569SOL    HW169148   5.052   6.216   6.074  2.1237  0.1422  0.3784
22569SOL    HW269149   4.988   6.349   6.109 -1.9231 -1.1699 -1.3981
22570SOL     OW69150   7.965   5.597   6.130  0.2337  0.2423 -0.1613
22570SOL    HW169151   8.060   5.590   6.134  0.2130  0.6323  1.2564
22570SOL    HW269152   7.932   5.519   6.175 -0.1077  0.8110  0.5820
22571SOL     OW69153   6.862   5.840   7.331  0.0280  0.4808  0.6036
22571SOL    HW169154   6.897   5.922   7.365  0.2769  0.3579  0.6433
22571SOL    HW269155   6.811   5.804   7.403 -0.6878  0.9482  0.3557
22572SOL     OW69156   6.128   5.584   7.031 -0.2206  0.0264 -0.0998
22572SOL    HW169157   6.059   5.602   6.967  0.7448  2.5249 -0.5726
22572SOL    HW269158   6.141   5.489   7.027 -2.8204 -0.3683 -0.7809
22573SOL     OW69159   5.349   5.277   6.807  0.1478  0.2129  0.1886
22573SOL    HW169160   5.288   5.251   6.876 -1.2153  4.2674  0.7779
22573SOL    HW269161   5.433   5.238   6.834 -1.1421 -1.4697  2.0411
22574SOL     OW69162   7.893   5.082   5.585 -0.1750  0.1135  0.3037
22574SOL    HW169163   7.872   5.162   5.536 -0.3200 -0.2700 -0.2661
22574SOL    HW269164   7.810   5.036   5.593  0.2690 -1.0734 -1.3604
22575SOL     OW69165   4.620   5.237   8.017  0.2701 -0.2205  0.0831
22575SOL    HW169166   4.674   5.291   7.959 -0.8279  0.6868 -0.1217
22575SOL    HW269167   4.569   5.300   8.068 -0.8731 -1.0591  0.0167
22576SOL     OW69168   5.828   1.157   6.068  0.1054  0.5053  0.5329
22576SOL    HW169169   5.918   1.174   6.093  0.2702 -0.6295  0.7803
22576SOL    HW269170   5.833   1.118   5.981 -0.1985  1.0753  0.2561
22577SOL     OW69171   4.822   7.623   6.073  0.5036 -0.6039 -0.2156
22577SOL    HW169172   4.753   7.582   6.126 -0.2431 -1.2153 -1.5826
22577SOL    HW269173   4.888   7.554   6.063  1.3441 -0.0138  1.1037
22578SOL     OW69174   6.935   6.056   8.590 -0.2878  0.2852  0.0455
22578SOL    HW169175   7.005   6.014   8.640 -0.4622  1.9132  1.7490
22578SOL    HW269176   6.870   6.081   8.655 -1.9765 -0.1801 -1.3763
22579SOL     OW69177   4.586   5.794   8.368 -0.0082  0.3992  0.0216
22579SOL    HW169178   4.519   5.834   8.423  0.5928  0.3637  0.7837
22579SOL    HW269179   4.554   5.704   8.353  0.2767  0.1167  1.0783
22580SOL     OW69180   4.226   5.888   8.137 -0.4626  0.1777 -0.1845
22580SOL    HW169181   4.202   5.795   8.129 -0.3638  0.2763 -1.8422
22580SOL    HW269182   4.158   5.935   8.090  0.7427  0.7598 -1.4165
22581SOL     OW69183   5.746   6.344   5.329 -0.0107  0.9010  0.1149
22581SOL    HW169184   5.745   6.326   5.424  1.1776 -2.7047 -0.3909
22581SOL    HW269185   5.836   6.369   5.310 -0.3982  2.2393 -0.0003
22582SOL     OW69186   7.394   6.607   5.044  0.6532  0.6922 -0.0270
22582SOL    HW169187   7.309   6.587   5.084  0.7630 -0.7786 -0.4623
22582SOL    HW269188   7.456   6.606   5.118  0.3922  1.1317  0.2017
22583SOL     OW69189   6.770   6.441   6.732 -0.5333 -0.6436  0.6040
22583SOL    HW169190   6.696   6.412   6.679 -0.0527  0.5290 -0.7579
22583SOL    HW269191   6.846   6.433   6.674  0.2035 -0.4866  1.5147
22584SOL     OW69192   4.729   6.651   7.649 -0.2499 -0.2864 -0.7999
22584SOL    HW169193   4.722   6.702   7.569  1.3225 -1.0516 -1.4624
22584SOL    HW269194   4.740   6.716   7.718 -0.5925  0.3390 -1.3208
22585SOL     OW69195   6.987   2.513   5.746 -0.1072 -0.3607 -0.2470
22585SOL    HW169196   6.972   2.530   5.839  1.3757 -0.2554  0.0059
22585SOL    HW269197   6.900   2.513   5.707 -0.6457  1.2076  0.8578
22586SOL     OW69198   4.747   5.648   5.923  0.0136  0.5025 -0.1305
22586SOL    HW169199   4.818   5.631   5.861  1.0059  0.0302  1.0920
22586SOL    HW269200   4.766   5.591   5.998 -1.1316  1.0758  0.6352
22587SOL     OW69201   7.929   5.400   5.068  0.1043  0.5730 -0.0113
22587SOL    HW169202   7.964   5.475   5.019 -0.3321  1.1082  0.4975
22587SOL    HW269203   7.840   5.425   5.091 -0.3509 -0.4480 -0.5671
22588SOL     OW69204   6.196   6.159   6.498 -0.4445  0.7737  0.2182
22588SOL    HW169205   6.238   6.182   6.581  0.0609  0.6235  0.0115
22588SOL    HW269206   6.241   6.213   6.433 -1.5467  1.6627  0.1711
22589SOL     OW69207   6.173   5.681   6.286  0.1105  0.4028 -1.0378
22589SOL    HW169208   6.225   5.704   6.209  0.7262 -1.8494 -1.3613
22589SOL    HW269209   6.206   5.738   6.356  1.1888  0.8182 -1.8740
22590SOL     OW69210   0.099   7.655   6.678  0.0267  0.1570  0.1278
22590SOL    HW169211   0.021   7.632   6.628  0.5027  0.8310 -0.9515
22590SOL    HW269212   0.172   7.615   6.630  0.2330 -2.7901  2.5205
22591SOL     OW69213   0.748   7.597   6.694 -0.2018 -0.1171  0.4118
22591SOL    HW169214   0.738   7.587   6.788  0.6798 -0.2619  0.4975
22591SOL    HW269215   0.666   7.638   6.665 -0.2667  0.4156  1.3129
22592SOL     OW69216   6.851   0.402   6.964 -0.2184 -0.0938 -0.0356
22592SOL    HW169217   6.838   0.342   7.038  0.2963 -0.6751 -0.4118
22592SOL    HW269218   6.787   0.472   6.980  1.1903  0.8359  2.0343
22593SOL     OW69219   6.584   7.210   5.358 -0.4635 -0.3237 -0.1142
22593SOL    HW169220   6.669   7.167   5.354  0.5913  1.6889 -0.7053
22593SOL    HW269221   6.595   7.280   5.422 -1.4054  0.5167 -0.8420
22594SOL     OW69222   6.382   6.608   7.134 -0.2559  0.3543 -0.1439
22594SOL    HW169223   6.313   6.553   7.098  1.3264 -1.3602 -0.6650
22594SOL    HW269224   6.445   6.618   7.063 -0.6155  3.1938 -0.1913
22595SOL     OW69225   6.550   4.710   6.848  0.0167  0.2057  0.2775
22595SOL    HW169226   6.529   4.703   6.942 -0.8252  0.4924  0.1248
22595SOL    HW269227   6.580   4.800   6.836 -2.2743  0.9906 -0.1365
22596SOL     OW69228   7.202   6.879   7.054  0.1621  0.0167  0.2731
22596SOL    HW169229   7.177   6.960   7.098  0.6704 -0.4146  1.4117
22596SOL    HW269230   7.250   6.907   6.976 -0.3665  0.8075  0.2233
22597SOL     OW69231   5.439   7.039   7.840 -0.2908  0.3427 -0.0098
22597SOL    HW169232   5.488   7.116   7.812 -0.4713 -0.0171 -1.3761
22597SOL    HW269233   5.348   7.067   7.841 -0.5819 -0.2894 -2.3193
22598SOL     OW69234   7.453   5.427   5.623 -0.1770 -0.3697  0.0815
22598SOL    HW169235   7.382   5.487   5.647 -1.1970 -2.1408  1.7475
22598SOL    HW269236   7.408   5.353   5.583  0.9922 -0.4390 -1.1725
22599SOL     OW69237   4.615   7.280   7.650 -0.0104  0.4241 -0.0323
22599SOL    HW169238   4.561   7.320   7.719  2.0895  3.0355  0.2775
22599SOL    HW269239   4.601   7.337   7.574 -1.1853 -1.5959 -1.4209
22600SOL     OW69240   6.883   7.173   5.068  0.0925 -0.3479  0.1931
22600SOL    HW169241   6.969   7.133   5.066 -1.1954 -3.3522  0.1228
22600SOL    HW269242   6.868   7.195   5.160 -0.4569 -3.3106  0.9057
22601SOL     OW69243   7.073   7.279   5.492  0.0681  0.2047 -0.2840
22601SOL    HW169244   7.115   7.193   5.487 -0.1946  0.0758 -0.3134
22601SOL    HW269245   7.082   7.305   5.583 -0.2249 -0.0471 -0.1807
22602SOL     OW69246   1.558   5.857   6.496 -0.4041  0.0316  0.0104
22602SOL    HW169247   1.551   5.821   6.407 -1.8738 -1.1568  0.5642
22602SOL    HW269248   1.649   5.883   6.504 -0.1067 -0.3707 -1.6533
22603SOL     OW69249   5.526   0.128   5.235  0.3317 -0.0776  0.0595
22603SOL    HW169250   5.536   0.093   5.323  0.4956 -0.8082 -0.2448
22603SOL    HW269251   5.494   0.054   5.183  1.2558  0.0408 -0.7206
22604SOL     OW69252   7.703   6.528   5.650 -0.1100  0.0260 -0.1254
22604SOL    HW169253   7.681   6.601   5.592 -0.1892  0.3725  0.3311
22604SOL    HW269254   7.731   6.570   5.732  1.0524 -0.4396 -0.2701
22605SOL     OW69255   6.594   4.439   7.898 -0.0764  0.0214  0.1083
22605SOL    HW169256   6.610   4.390   7.817  1.0270  0.2358  0.1790
22605SOL    HW269257   6.639   4.523   7.885  0.9560 -0.3096  1.2990
22606SOL     OW69258   5.651   6.024   6.909 -0.1603  0.2569  0.1352
22606SOL    HW169259   5.683   6.106   6.871  2.8420  0.3109  2.4671
22606SOL    HW269260   5.567   6.047   6.948 -1.0167  1.3070 -2.1171
22607SOL     OW69261   6.602   0.814   4.597  0.0160  0.1594  0.1107
22607SOL    HW169262   6.550   0.847   4.523  0.3018  2.0628  0.7057
22607SOL    HW269263   6.581   0.873   4.669  1.5172 -0.2372  0.9063
22608SOL     OW69264   7.494   7.288   8.594  0.0324  0.5404  0.2236
22608SOL    HW169265   7.444   7.238   8.659 -1.3931 -0.6253 -1.6866
22608SOL    HW269266   7.434   7.356   8.565  0.6194  0.9756  0.0164
22609SOL     OW69267   6.798   6.875   5.950 -0.2329 -0.0564  0.0849
22609SOL    HW169268   6.765   6.817   5.881 -0.3431  0.4548 -0.3055
22609SOL    HW269269   6.824   6.817   6.021  0.0521 -0.6080 -0.4642
22610SOL     OW69270   5.491   7.301   7.087 -0.3570 -0.6595 -0.3582
22610SOL    HW169271   5.483   7.221   7.035  0.5759 -0.4242 -0.8824
22610SOL    HW269272   5.549   7.277   7.159 -0.0592 -0.4483 -0.5278
22611SOL     OW69273   6.718   7.000   8.875 -0.0483  0.1467  0.4102
22611SOL    HW169274   6.635   6.987   8.831 -0.2670 -1.7881  1.2892
22611SOL    HW269275   6.735   7.094   8.868 -1.5205  0.3355 -1.1234
22612SOL     OW69276   7.716   0.048   6.817  0.0777 -0.4700  0.5002
22612SOL    HW169277   7.707  -0.027   6.876 -0.1325 -0.1955  0.8210
22612SOL    HW269278   7.720   0.009   6.729  1.8348 -0.9641  0.7743
22613SOL     OW69279   7.586   4.582   5.918 -0.0123 -0.8180  0.0044
22613SOL    HW169280   7.568   4.552   5.829  1.6181 -1.6261 -0.0944
22613SOL    HW269281   7.500   4.605   5.953 -0.6992 -0.5066 -1.7518
22614SOL     OW69282   6.724   5.113   6.390 -0.1151  0.3582 -0.0611
22614SOL    HW169283   6.659   5.152   6.332 -0.3205  0.0338 -0.0467
22614SOL    HW269284   6.680   5.108   6.475  0.0812  0.5481  0.0551
22615SOL     OW69285   5.130   6.788   8.180 -0.0527 -0.4630 -0.2515
22615SOL    HW169286   5.126   6.730   8.256 -0.0606 -0.7646 -0.4802
22615SOL    HW269287   5.221   6.785   8.152  0.3540  1.0096  0.7868
22616SOL     OW69288   6.777   6.443   9.254 -0.3397 -0.1449  0.7876
22616SOL    HW169289   6.833   6.520   9.248  0.5305 -0.7697  0.8407
22616SOL    HW269290   6.831   6.371   9.222 -1.2948 -0.6661  0.3050
22617SOL     OW69291   6.181   6.484   5.564  0.4766  0.2780  0.2557
22617SOL    HW169292   6.167   6.526   5.479  1.2236 -0.3988 -0.2274
22617SOL    HW269293   6.250   6.419   5.547  0.4386 -0.0624  1.3188
22618SOL     OW69294   6.333   6.199   6.735 -0.3175  0.0840  0.7673
22618SOL    HW169295   6.271   6.218   6.806 -1.1309 -1.5981  0.5617
22618SOL    HW269296   6.327   6.104   6.722  0.1989  0.2593 -1.1869
22619SOL     OW69297   5.291   6.368   4.946  0.1022 -0.0704 -0.1063
22619SOL    HW169298   5.278   6.322   5.029  1.5122 -1.9871 -0.8683
22619SOL    HW269299   5.371   6.419   4.960  0.3025 -0.3410 -0.2696
22620SOL     OW69300   7.184   7.019   5.524 -0.1154 -0.0740  0.0094
22620SOL    HW169301   7.236   6.995   5.447  2.2234  3.2305  0.3747
22620SOL    HW269302   7.237   6.989   5.598  0.0403  1.0398  0.3566
22621SOL     OW69303   6.594   6.372   6.081  0.1231  0.2125  0.0961
22621SOL    HW169304   6.566   6.454   6.039 -0.4063 -0.8131 -1.6453
22621SOL    HW269305   6.514   6.336   6.119 -0.0475 -0.4277 -0.8354
22622SOL     OW69306   0.246   7.977   5.864  0.4471 -0.6657 -0.2581
22622SOL    HW169307   0.238   7.895   5.913  1.3506 -0.1781  0.7611
22622SOL    HW269308   0.329   7.969   5.817 -0.1568 -0.9081 -1.3127
22623SOL     OW69309   6.261   7.604   8.005 -0.0415 -0.0242 -0.4620
22623SOL    HW169310   6.322   7.649   8.064  0.0803 -1.0116  0.1791
22623SOL    HW269311   6.176   7.611   8.049 -0.1936  0.3725 -0.8111
22624SOL     OW69312   7.976   5.350   6.717 -0.0021  0.2625 -0.1871
22624SOL    HW169313   7.888   5.365   6.751  0.5228  0.5967  1.0924
22624SOL    HW269314   7.985   5.255   6.718 -0.2151  0.2411  0.0668
22625SOL     OW69315   4.912   6.754   6.991  0.2524 -0.4242 -0.4026
22625SOL    HW169316   4.834   6.699   6.983 -0.0196 -0.1145  0.0713
22625SOL    HW269317   4.953   6.751   6.905 -0.1527 -0.7843 -0.5855
22626SOL     OW69318   7.154   5.549   7.307 -0.6608 -0.1648  0.0183
22626SOL    HW169319   7.205   5.534   7.386 -1.6323  0.3368  0.7573
22626SOL    HW269320   7.188   5.485   7.244 -0.7298 -1.4487  1.2419
22627SOL     OW69321   6.615   5.724   6.698  0.0242  0.2915  0.5202
22627SOL    HW169322   6.645   5.807   6.735  1.1747  0.7373 -1.2843
22627SOL    HW269323   6.525   5.717   6.727  0.1268  1.8038  1.3494
22628SOL     OW69324   5.115   6.262   5.444 -0.1088 -0.8485 -0.2265
22628SOL    HW169325   5.188   6.200   5.449 -0.0998 -0.7272  1.7022
22628SOL    HW269326   5.155   6.347   5.464 -0.4583 -0.4840 -1.0373
22629SOL     OW69327   6.992   5.259   7.220 -0.1475  0.3425 -0.1862
22629SOL    HW169328   6.951   5.341   7.246 -0.2819  0.0279  0.5992
22629SOL    HW269329   7.084   5.282   7.204 -0.4322  0.8875 -1.1898
22630SOL     OW69330   7.236   6.883   6.476  0.1202 -0.0913  0.0594
22630SOL    HW169331   7.166   6.928   6.430 -0.8085 -1.7139 -0.1912
22630SOL    HW269332   7.192   6.828   6.540  1.0862 -1.6071 -0.5025
22631SOL     OW69333   6.171   6.355   5.064 -0.1099 -0.0517  0.2670
22631SOL    HW169334   6.110   6.306   5.009 -1.6548  1.3650  0.6494
22631SOL    HW269335   6.209   6.420   5.005  1.0377 -0.8750  0.0494
22632SOL     OW69336   5.866   5.301   6.315 -0.4634 -0.4438  0.3237
22632SOL    HW169337   5.932   5.362   6.282 -0.1239 -0.7877  0.3563
22632SOL    HW269338   5.792   5.311   6.255 -0.0434 -0.6925 -0.2456
22633SOL     OW69339   6.289   5.738   6.023  0.4058 -0.1684  0.0551
22633SOL    HW169340   6.329   5.665   5.977  0.0714 -1.2386  1.4166
22633SOL    HW269341   6.205   5.751   5.978  0.1229 -1.1430  0.2716
22634SOL     OW69342   6.725   7.437   5.513  0.2719 -0.5769 -0.2365
22634SOL    HW169343   6.804   7.486   5.536 -0.4072  1.5915 -2.1150
22634SOL    HW269344   6.742   7.348   5.542  3.1313 -0.0335  0.0176
22635SOL     OW69345   0.396   5.638   5.803  0.0959  0.2084  0.4472
22635SOL    HW169346   0.384   5.693   5.880 -0.8543 -1.1471  1.3184
22635SOL    HW269347   0.328   5.666   5.742  0.3848  0.7885  0.3820
22636SOL     OW69348   5.333   0.095   6.438 -0.2300  0.4491  0.4852
22636SOL    HW169349   5.248   0.061   6.411  1.2617 -1.1986 -2.6721
22636SOL    HW269350   5.333   0.186   6.407 -0.3896  0.0573 -0.7092
22637SOL     OW69351   5.670   5.185   7.543  0.3715 -0.2831 -0.1675
22637SOL    HW169352   5.576   5.164   7.538  0.1964  0.4976 -0.3668
22637SOL    HW269353   5.683   5.213   7.633 -0.0747  1.6623 -0.6405
22638SOL     OW69354   6.111   5.173   8.324 -0.1883 -0.4265  0.0121
22638SOL    HW169355   6.130   5.106   8.259 -0.3428 -0.4872  0.0310
22638SOL    HW269356   6.029   5.145   8.366 -0.3053 -0.1786 -0.0460
22639SOL     OW69357   1.356   5.117   6.427 -0.3165  0.0544 -0.4318
22639SOL    HW169358   1.426   5.163   6.382  0.7714 -2.5451 -1.6025
22639SOL    HW269359   1.399   5.068   6.497 -1.2860  0.0480  0.1916
22640SOL     OW69360   6.599   5.501   6.144 -0.6508  0.0026  0.2068
22640SOL    HW169361   6.612   5.566   6.214 -0.3066 -0.2347  0.3680
22640SOL    HW269362   6.683   5.500   6.098 -0.3225 -1.0108  0.7905
22641SOL     OW69363   5.857   4.799   7.885 -0.0461 -0.6135  0.5003
22641SOL    HW169364   5.932   4.743   7.904 -0.6005 -1.7751 -0.6303
22641SOL    HW269365   5.888   4.887   7.907  0.7193 -1.3483  2.6743
22642SOL     OW69366   7.047   7.694   6.382  0.0413  0.0921  0.0722
22642SOL    HW169367   6.963   7.656   6.355 -0.2645  2.1520 -2.3146
22642SOL    HW269368   7.111   7.654   6.323  0.0896  1.3101 -0.7440
22643SOL     OW69369   6.206   5.342   5.763  0.0950 -0.0491 -0.1118
22643SOL    HW169370   6.276   5.401   5.790  1.4083 -1.4355 -0.3416
22643SOL    HW269371   6.178   5.299   5.845  0.2764 -0.2667 -0.1604
22644SOL     OW69372   5.968   4.657   7.172 -0.2361  0.0178 -0.2098
22644SOL    HW169373   5.966   4.684   7.080 -1.0209  0.2928 -0.1169
22644SOL    HW269374   5.955   4.563   7.169  1.4879 -0.2553 -0.4711
22645SOL     OW69375   0.421   5.884   4.061 -0.7411 -0.1723 -0.4859
22645SOL    HW169376   0.383   5.948   4.121  0.7267  1.6264 -1.3712
22645SOL    HW269377   0.455   5.936   3.989  1.4350 -1.8543 -0.7756
22646SOL     OW69378   3.724   7.526   7.523 -0.0704 -0.0835 -0.0822
22646SOL    HW169379   3.708   7.589   7.452  0.8084 -0.2356 -0.4271
22646SOL    HW269380   3.784   7.462   7.485 -0.7466 -0.9953  0.3443
22647SOL     OW69381   6.871   4.824   6.024 -0.2290 -0.2526  0.2403
22647SOL    HW169382   6.855   4.758   6.092 -0.8765 -0.1688  0.1734
22647SOL    HW269383   6.881   4.906   6.073  1.5723 -0.5355  0.4051
22648SOL     OW69384   7.106   6.773   5.871  0.1127  0.8192  0.4926
22648SOL    HW169385   7.153   6.778   5.954 -0.4181  1.6146  0.7608
22648SOL    HW269386   7.073   6.862   5.857 -0.0736  0.6156 -0.4131
22649SOL     OW69387   7.642   5.356   3.659 -0.2205  0.5378 -0.2374
22649SOL    HW169388   7.569   5.403   3.619  1.2662  1.1869 -2.3137
22649SOL    HW269389   7.711   5.356   3.593  1.6989 -0.0363  1.6310
22650SOL     OW69390   6.731   5.584   4.225  0.4455  0.8865 -0.2901
22650SOL    HW169391   6.817   5.544   4.209  0.4006  0.0193  1.3600
22650SOL    HW269392   6.678   5.559   4.150  0.3788 -2.4148  0.7071
22651SOL     OW69393   0.239   5.609   6.176 -0.1177  0.4054 -0.2000
22651SOL    HW169394   0.265   5.644   6.261 -0.4753 -0.5043  0.2998
22651SOL    HW269395   0.266   5.518   6.178 -0.9111  0.1441 -0.7234
22652SOL     OW69396   4.790   5.684   8.495 -0.2730 -0.3843  0.4645
22652SOL    HW169397   4.715   5.721   8.447  0.0878  0.5274  0.5885
22652SOL    HW269398   4.836   5.760   8.530 -0.2962 -1.0045  1.9219
22653SOL     OW69399   5.144   4.678   7.502  0.2762 -0.0951 -0.3558
22653SOL    HW169400   5.127   4.712   7.590 -1.1353 -0.1495 -0.5868
22653SOL    HW269401   5.173   4.588   7.517  1.6564  0.3964  0.1213
22654SOL     OW69402   7.486   5.428   7.110 -0.1196  0.3233 -0.1823
22654SOL    HW169403   7.548   5.355   7.110  0.1215  0.5195  0.5231
22654SOL    HW269404   7.474   5.449   7.017  0.4899 -0.0349 -0.3516
22655SOL     OW69405   6.043   6.592   8.970  0.2688 -0.2802 -0.6360
22655SOL    HW169406   6.053   6.497   8.959  1.6354 -0.4380  1.4459
22655SOL    HW269407   6.083   6.629   8.891  0.7919 -1.3967 -0.9180
22656SOL     OW69408   7.608   7.045   8.532 -0.0830  0.4051 -0.5417
22656SOL    HW169409   7.533   7.104   8.532  0.6010  1.3167 -1.5707
22656SOL    HW269410   7.676   7.092   8.484  1.4094 -0.0963  0.9893
22657SOL     OW69411   6.619   0.137   8.291 -0.1169  0.1175 -0.1336
22657SOL    HW169412   6.669   0.112   8.369 -0.0820  1.7024  0.3855
22657SOL    HW269413   6.547   0.190   8.325 -1.4540 -1.0713 -0.9917
22658SOL     OW69414   7.951   6.317   7.543  0.2385 -0.2918  0.4720
22658SOL    HW169415   7.864   6.355   7.552  1.4504  2.3311  3.2020
22658SOL    HW269416   7.965   6.310   7.449 -1.6532  2.4656 -0.1311
22659SOL     OW69417   5.507   6.223   7.740  0.5945  0.2229  0.6217
22659SOL    HW169418   5.424   6.232   7.693  0.5545 -1.4103  0.3038
22659SOL    HW269419   5.482   6.214   7.832  0.4812  0.5904  0.6277
22660SOL     OW69420   7.640   6.218  10.621 -0.1647  0.4889  0.5139
22660SOL    HW169421   7.733   6.201  10.634 -0.5337 -1.0375  1.4169
22660SOL    HW269422   7.598   6.133  10.634 -1.5110  0.6729 -1.9936
22661SOL     OW69423   7.496   6.196   7.304 -0.1193 -0.4093  0.3223
22661SOL    HW169424   7.551   6.119   7.290  0.7429 -0.2796  2.5913
22661SOL    HW269425   7.474   6.194   7.397  0.2337  2.2629  0.5551
22662SOL     OW69426   0.025   7.136   8.140  0.0950 -0.1365  0.3165
22662SOL    HW169427   0.007   7.065   8.078 -0.3858 -0.0084  0.3068
22662SOL    HW269428   0.089   7.098   8.200 -0.9202 -0.9521  0.9313
22663SOL     OW69429   6.609   5.793   9.394 -0.1387 -0.7873 -0.2993
22663SOL    HW169430   6.619   5.842   9.313  1.9457  1.9574  1.4427
22663SOL    HW269431   6.688   5.738   9.399  0.2783 -0.1528  0.3140
22664SOL     OW69432   7.446   7.659   9.464 -0.2411  0.9327 -1.0546
22664SOL    HW169433   7.512   7.696   9.523  0.3727 -1.3870 -0.1857
22664SOL    HW269434   7.493   7.640   9.383  0.4133 -1.2463 -0.2472
22665SOL     OW69435   4.296   5.305  10.232 -0.5338 -0.3192  1.1769
22665SOL    HW169436   4.285   5.211  10.247 -0.4382 -0.3803  0.8737
22665SOL    HW269437   4.217   5.332  10.184  0.3384 -0.6539 -0.5334
22666SOL     OW69438   7.499   5.705   9.747 -0.2991  0.0923 -0.6225
22666SOL    HW169439   7.556   5.769   9.790  3.1755 -2.3812 -1.1133
22666SOL    HW269440   7.534   5.697   9.658 -3.1774  0.3004 -1.8985
22667SOL     OW69441   5.216   7.203   7.759 -0.6960 -0.0137 -0.0262
22667SOL    HW169442   5.169   7.149   7.823 -0.9147 -0.8124 -0.8408
22667SOL    HW269443   5.240   7.281   7.808  0.9587 -1.4665  1.6422
22668SOL     OW69444   7.610   5.509   8.210 -0.8665  0.5567  0.1525
22668SOL    HW169445   7.577   5.473   8.292  2.2730  0.1901  1.3792
22668SOL    HW269446   7.605   5.436   8.148  0.7375 -0.5206  1.2403
22669SOL     OW69447   6.813   7.245   8.021 -0.2096 -0.0091  0.0852
22669SOL    HW169448   6.908   7.256   8.025 -0.0846 -0.8915 -0.1878
22669SOL    HW269449   6.786   7.303   7.950  0.2364 -0.4001 -0.4113
22670SOL     OW69450   4.170   6.625   9.282 -0.1609  0.3262  0.4289
22670SOL    HW169451   4.109   6.699   9.283 -2.1105 -1.2290  1.2153
22670SOL    HW269452   4.257   6.667   9.282 -1.0549  2.7221  4.4776
22671SOL     OW69453   6.454   6.845   6.751  0.1896  0.4638 -0.3850
22671SOL    HW169454   6.380   6.874   6.804 -0.0854  0.3108 -0.6862
22671SOL    HW269455   6.505   6.924   6.735 -0.2387  0.6781 -0.7033
22672SOL     OW69456   0.266   6.618   6.965 -0.0027 -0.2581  0.1645
22672SOL    HW169457   0.217   6.630   6.883 -1.7011 -1.3836  0.9437
22672SOL    HW269458   0.356   6.642   6.943  0.0959 -2.6582 -2.6973
22673SOL     OW69459   4.473   5.550   8.426 -0.9114  0.8339 -0.1305
22673SOL    HW169460   4.379   5.556   8.441 -1.2417 -0.7338 -1.2809
22673SOL    HW269461   4.496   5.460   8.451  0.5871  1.6227  1.5581
22674SOL     OW69462   0.472   0.376   8.410 -0.2203  0.1302  0.2853
22674SOL    HW169463   0.401   0.326   8.369  0.0098  1.1721 -1.5108
22674SOL    HW269464   0.552   0.331   8.384 -0.1093  0.3227  0.2929
22675SOL     OW69465   5.444   5.996   7.114 -0.1306 -0.1661 -0.6097
22675SOL    HW169466   5.480   5.977   7.201 -1.5039  0.4023  0.1025
22675SOL    HW269467   5.362   6.042   7.131 -0.3467  0.1015 -2.2196
22676SOL     OW69468   6.966   5.616   6.550 -0.8023 -0.1568 -0.3285
22676SOL    HW169469   6.973   5.559   6.627 -1.1371 -2.9044 -2.1767
22676SOL    HW269470   6.873   5.636   6.544 -1.0785 -1.5040 -0.9913
22677SOL     OW69471   6.582   5.873   5.608 -0.0085 -0.3737  0.5312
22677SOL    HW169472   6.508   5.910   5.656 -1.3303 -1.1711 -0.8096
22677SOL    HW269473   6.555   5.784   5.587  0.9575 -0.3905 -0.7793
22678SOL     OW69474   5.067   6.028   9.227  0.0490 -0.0955 -0.3532
22678SOL    HW169475   5.089   6.004   9.137  1.2520  0.9305 -0.3608
22678SOL    HW269476   5.152   6.041   9.270 -0.5168  1.0790  0.4650
22679SOL     OW69477   7.162   5.569   9.408  0.2743 -0.0875 -0.0308
22679SOL    HW169478   7.137   5.641   9.466 -0.4703 -0.4091  0.0665
22679SOL    HW269479   7.124   5.592   9.324  0.2598 -0.2407 -0.0662
22680SOL     OW69480   7.183   6.562   8.191  0.6545  0.5663  0.2044
22680SOL    HW169481   7.276   6.540   8.195  0.2988 -1.0129  0.8563
22680SOL    HW269482   7.139   6.480   8.212 -0.8772  1.4453  0.5600
22681SOL     OW69483   7.176   5.876   9.543 -0.0911 -0.0193 -0.5444
22681SOL    HW169484   7.141   5.857   9.631  0.5073 -1.9397 -0.6704
22681SOL    HW269485   7.256   5.925   9.559 -1.1675  1.6976 -0.1426
22682SOL     OW69486   5.889   5.968   9.523 -0.4118  0.0198 -0.2474
22682SOL    HW169487   5.871   5.885   9.568  3.6157 -1.4637 -0.9422
22682SOL    HW269488   5.926   6.025   9.590 -1.8540  0.8153 -0.0831
22683SOL     OW69489   7.615   4.550   6.438  0.0117 -0.2773 -0.3861
22683SOL    HW169490   7.635   4.566   6.346 -1.8158  0.4269 -0.7045
22683SOL    HW269491   7.651   4.626   6.484  1.0508 -0.6983 -0.4742
22684SOL     OW69492   5.526   0.310   8.054 -0.2311  0.1707  0.0784
22684SOL    HW169493   5.533   0.402   8.029 -0.0956  0.6990  1.9363
22684SOL    HW269494   5.609   0.290   8.096 -0.8183 -0.3506  1.0256
22685SOL     OW69495   4.837   5.984  10.264 -0.2328 -0.0343 -0.0563
22685SOL    HW169496   4.843   6.011  10.172  0.4555 -1.2155 -0.3899
22685SOL    HW269497   4.902   6.037  10.309 -0.0211  0.0078 -0.4055
22686SOL     OW69498   6.060   5.680   8.508  0.7746 -0.4117 -0.4192
22686SOL    HW169499   6.134   5.739   8.523  0.4724 -0.0998 -0.1354
22686SOL    HW269500   6.085   5.598   8.551  1.3121 -0.5820 -1.0481
22687SOL     OW69501   5.991   5.478   8.741  0.5375 -0.3594 -0.1490
22687SOL    HW169502   5.906   5.522   8.745  0.3837 -0.6275 -0.4283
22687SOL    HW269503   6.054   5.545   8.769  0.1007 -0.5474  1.3631
22688SOL     OW69504   5.145   6.009   7.556  0.5272  0.1684  0.7327
22688SOL    HW169505   5.067   6.010   7.500  0.5180  0.6958  0.7559
22688SOL    HW269506   5.177   5.919   7.549  0.3853  0.1599  0.0732
22689SOL     OW69507   0.159   4.915   8.315 -0.3030 -0.0258  0.0909
22689SOL    HW169508   0.199   4.987   8.267 -1.0140  0.0461 -0.4090
22689SOL    HW269509   0.075   4.949   8.345 -0.1110 -0.2563  0.9173
22690SOL     OW69510   7.501   5.856   8.086  0.2518  0.5316 -0.2383
22690SOL    HW169511   7.436   5.786   8.076  1.5574 -0.8347  0.5102
22690SOL    HW269512   7.567   5.838   8.019  2.3061 -0.9835  2.0383
22691SOL     OW69513   5.502   5.957  10.179 -0.2020 -0.2749  0.2841
22691SOL    HW169514   5.447   6.012  10.125  0.5235  0.1493 -0.0409
22691SOL    HW269515   5.580   6.010  10.196  0.8158 -1.4169 -0.5879
22692SOL     OW69516   5.667   5.247   9.285  0.3575  0.3159  0.1799
22692SOL    HW169517   5.705   5.314   9.343 -0.9610  2.0644 -0.8747
22692SOL    HW269518   5.586   5.286   9.253 -0.4400 -1.8067 -0.5434
22693SOL     OW69519   5.492   6.682   8.260 -0.6778 -0.4193 -0.1898
22693SOL    HW169520   5.508   6.750   8.326  0.0376 -1.9954  1.3419
22693SOL    HW269521   5.454   6.729   8.186 -1.7669  1.4025  1.4351
22694SOL     OW69522   6.216   6.193   9.782  0.6102  0.2029 -0.1942
22694SOL    HW169523   6.223   6.211   9.689 -0.7753 -0.1534 -0.3973
22694SOL    HW269524   6.232   6.099   9.790 -0.1742  0.0609 -0.2062
22695SOL     OW69525   5.910   4.379   8.674 -0.2106 -0.4829 -0.3823
22695SOL    HW169526   5.990   4.327   8.665  1.4409  1.9169 -0.6590
22695SOL    HW269527   5.867   4.371   8.589  0.3384 -0.8840 -0.6334
22696SOL     OW69528   5.370   6.824   8.033 -0.7937  0.1697 -0.2255
22696SOL    HW169529   5.307   6.895   8.027  0.2536  1.0083 -1.5977
22696SOL    HW269530   5.387   6.798   7.943 -0.1301 -0.9147  0.1847
22697SOL     OW69531   6.201   7.810   9.803  0.1088 -0.2623 -0.7551
22697SOL    HW169532   6.141   7.766   9.863  1.1532 -1.7079 -0.7285
22697SOL    HW269533   6.156   7.807   9.718 -1.1232  1.2989 -0.2096
22698SOL     OW69534   5.838   4.211   7.284 -0.2072 -0.3459 -0.2978
22698SOL    HW169535   5.912   4.225   7.343  1.2439 -1.8726 -1.6544
22698SOL    HW269536   5.761   4.216   7.341  0.9430  0.8017  1.2452
22699SOL     OW69537   0.075   6.989   6.678 -0.0540 -0.6403  0.2996
22699SOL    HW169538   0.117   6.921   6.730  0.1522 -1.2296 -0.6081
22699SOL    HW269539   0.122   6.987   6.594  1.3958  2.0919  0.9599
22700SOL     OW69540   7.017   1.299   8.564 -0.0741 -0.7304  0.1417
22700SOL    HW169541   6.976   1.271   8.646 -1.8904  0.1176 -0.4141
22700SOL    HW269542   7.099   1.251   8.560  0.7436  0.1978  3.1088
22701SOL     OW69543   4.580   7.002   8.261  0.2683  0.0721 -0.2886
22701SOL    HW169544   4.623   6.917   8.266  2.3065  1.0382 -0.4044
22701SOL    HW269545   4.556   7.022   8.352  1.6147  0.2412  0.0528
22702SOL     OW69546   5.909   7.115   7.346 -0.4146  0.4206  0.1692
22702SOL    HW169547   5.884   7.165   7.424  0.0913  0.9487  0.0072
22702SOL    HW269548   5.839   7.052   7.334  0.4628 -1.0723  2.2531
22703SOL     OW69549   4.642   6.434   8.955 -0.0146 -0.8247  0.3204
22703SOL    HW169550   4.706   6.411   8.888 -0.5673 -0.3147 -0.4036
22703SOL    HW269551   4.694   6.459   9.031  0.6633 -0.1175 -0.3573
22704SOL     OW69552   7.880   6.083   5.859  0.9334 -0.2591  0.1700
22704SOL    HW169553   7.804   6.099   5.802  0.9718  0.2148  0.2511
22704SOL    HW269554   7.847   6.022   5.925  0.5325  0.1770  0.3799
22705SOL     OW69555   7.224   0.679   7.873 -0.0857  0.6529  0.2340
22705SOL    HW169556   7.304   0.698   7.923 -0.2451  1.9185  0.0527
22705SOL    HW269557   7.221   0.584   7.869 -0.4039  0.4365  3.1701
22706SOL     OW69558   6.160   5.319   7.012 -0.4804  0.1005 -0.6342
22706SOL    HW169559   6.208   5.254   6.962  0.7483  0.5848 -0.1206
22706SOL    HW269560   6.166   5.289   7.103 -2.3714 -0.5762 -0.6800
22707SOL     OW69561   6.897   7.904   6.954 -0.1736  0.0257 -0.0480
22707SOL    HW169562   6.930   7.824   6.995 -0.7732  0.7447  1.9766
22707SOL    HW269563   6.804   7.886   6.937 -0.3321  0.2798  0.4937
22708SOL     OW69564   5.327   6.685  10.240  0.7080  0.1141  0.0710
22708SOL    HW169565   5.321   6.780  10.245 -0.3902  0.0650 -0.0485
22708SOL    HW269566   5.418   6.668  10.215  1.1431  1.0864  0.9466
22709SOL     OW69567   5.554   7.039   7.082  0.0843  0.1683 -0.0867
22709SOL    HW169568   5.642   7.035   7.121 -0.0699 -2.2446  0.2144
22709SOL    HW269569   5.542   6.952   7.045 -2.4059  0.2571  0.3779
22710SOL     OW69570   6.345   5.971   9.366  0.4106  0.0243  0.0315
22710SOL    HW169571   6.373   6.058   9.337  1.4194 -0.3902 -0.3024
22710SOL    HW269572   6.423   5.933   9.407  0.3003 -1.0917 -0.7238
22711SOL     OW69573   0.907   6.336   6.457 -0.0079  0.0905  1.0698
22711SOL    HW169574   0.819   6.343   6.420  0.1029 -1.6879  0.3902
22711SOL    HW269575   0.893   6.315   6.549 -0.2719  1.2584  1.3157
22712SOL     OW69576   6.774   6.545   8.866  0.2151  0.6167 -0.3782
22712SOL    HW169577   6.831   6.593   8.927 -0.0766  1.6551 -0.8936
22712SOL    HW269578   6.778   6.596   8.785 -1.7481  0.9242 -0.3089
22713SOL     OW69579   7.099   4.843   7.275 -0.3207 -0.1563  0.1255
22713SOL    HW169580   7.060   4.910   7.331  0.2576  0.4290 -0.1586
22713SOL    HW269581   7.032   4.775   7.270 -1.1253  0.6121  0.0290
22714SOL     OW69582   7.225   7.908   8.069  0.5521 -0.0165  0.2014
22714SOL    HW169583   7.183   7.950   7.994 -0.8652 -0.7664  0.5339
22714SOL    HW269584   7.319   7.921   8.054  0.2547  0.9521 -1.0336
22715SOL     OW69585   6.707   0.295   6.054 -0.3216 -0.1579 -0.4920
22715SOL    HW169586   6.747   0.357   5.993 -0.0574  0.2277  0.0624
22715SOL    HW269587   6.613   0.312   6.047 -0.2604  0.2079 -0.4515
22716SOL     OW69588   4.488   6.267   8.391 -0.0177  0.0834  0.2876
22716SOL    HW169589   4.567   6.261   8.336 -0.3979 -2.6531 -0.0887
22716SOL    HW269590   4.498   6.197   8.455 -1.6288  0.4298  0.9627
22717SOL     OW69591   6.204   4.778  10.121  0.4384 -0.6654 -0.5960
22717SOL    HW169592   6.271   4.710  10.125  1.2389 -0.0371 -2.2708
22717SOL    HW269593   6.143   4.748  10.054  0.7425  0.1897 -1.2740
22718SOL     OW69594   6.569   5.966   7.456 -0.7339  0.0364  0.0179
22718SOL    HW169595   6.592   5.873   7.459 -1.3535 -0.1629 -0.8439
22718SOL    HW269596   6.477   5.969   7.482 -1.0307  0.2637 -1.0183
22719SOL     OW69597   5.712   5.524   8.342 -0.0830  0.0769  0.2735
22719SOL    HW169598   5.713   5.439   8.387  0.0350 -0.7032 -1.1423
22719SOL    HW269599   5.802   5.538   8.315 -0.2878  0.1378 -0.3987
22720SOL     OW69600   5.839   7.817   7.610  0.3023  0.1740 -0.1511
22720SOL    HW169601   5.786   7.856   7.540  3.0994  1.0223 -1.9947
22720SOL    HW269602   5.841   7.724   7.590  1.7421  0.5065 -1.8226
22721SOL     OW69603   7.647   5.659  10.596 -0.1256 -0.3429 -0.1145
22721SOL    HW169604   7.673   5.569  10.576 -0.3315 -0.5229  0.4248
22721SOL    HW269605   7.723   5.698  10.638  0.1221 -0.1222 -0.7476
22722SOL     OW69606   7.586   0.058   7.853 -0.1699 -0.1223  0.1194
22722SOL    HW169607   7.523   0.000   7.896 -0.6158  0.9020  0.8935
22722SOL    HW269608   7.537   0.099   7.782 -0.3892  0.6560  0.7064
22723SOL     OW69609   5.141   5.253   9.385  0.2235  0.4171 -0.3261
22723SOL    HW169610   5.077   5.183   9.394 -0.8813  1.5062  0.5902
22723SOL    HW269611   5.090   5.333   9.376  1.4469  1.2515 -0.2131
22724SOL     OW69612   5.990   6.068   7.911 -0.1023 -0.2313  0.1255
22724SOL    HW169613   6.012   6.064   8.004  0.9951  2.2657  0.0437
22724SOL    HW269614   5.916   6.128   7.906  0.1913  0.0776 -0.6783
22725SOL     OW69615   6.396   6.414   7.668 -0.6951 -0.0470 -0.1363
22725SOL    HW169616   6.370   6.435   7.757 -0.5774 -0.4843  0.0025
22725SOL    HW269617   6.314   6.417   7.618 -0.7791  0.0724  0.0082
22726SOL     OW69618   6.117   5.320   8.069 -0.5790 -0.2070  0.0520
22726SOL    HW169619   6.176   5.345   7.998  1.1444 -0.2490  1.4158
22726SOL    HW269620   6.153   5.238   8.103  0.0222  0.9332  2.4152
22727SOL     OW69621   7.171   5.893   7.513 -0.2974  0.2432 -0.2234
22727SOL    HW169622   7.220   5.812   7.531 -0.2269  0.1781 -0.7152
22727SOL    HW269623   7.202   5.921   7.427 -0.7433  0.4859 -0.3030
22728SOL     OW69624   6.300   7.373   6.375 -0.0217 -0.1633  0.0278
22728SOL    HW169625   6.294   7.453   6.324 -0.8190 -0.5789 -0.5467
22728SOL    HW269626   6.369   7.322   6.332  0.1738  0.0266  0.1204
22729SOL     OW69627   5.323   4.932   9.677  0.4254 -0.1773 -0.7348
22729SOL    HW169628   5.234   4.918   9.646  0.8738  0.0455 -2.1732
22729SOL    HW269629   5.348   5.017   9.640  0.1498  1.3779  2.2558
22730SOL     OW69630   7.014   7.860   7.607 -0.1527  0.2483 -0.1470
22730SOL    HW169631   7.026   7.785   7.549 -1.8819 -0.1097 -0.1027
22730SOL    HW269632   7.101   7.877   7.644  1.0717  0.5945 -2.9142
22731SOL     OW69633   5.957   7.078   6.464  0.6326  0.1968 -0.1068
22731SOL    HW169634   5.908   7.144   6.515  0.0925 -0.2439 -0.0465
22731SOL    HW269635   5.892   7.012   6.443  0.9701  0.1280 -0.9502
22732SOL     OW69636   4.736   5.708   8.005 -0.0946 -0.2756  0.0250
22732SOL    HW169637   4.772   5.691   8.093  0.0934 -1.4185 -0.2453
22732SOL    HW269638   4.798   5.665   7.946 -0.1830  0.5416 -0.6813
22733SOL     OW69639   4.746   6.121   8.478 -0.2137  0.0622  1.1242
22733SOL    HW169640   4.722   6.170   8.556  1.3078 -1.4395  2.6060
22733SOL    HW269641   4.812   6.058   8.507  0.0987 -0.8595 -1.2826
22734SOL     OW69642   7.871   6.132   7.851  0.1252  0.1951  0.3095
22734SOL    HW169643   7.828   6.108   7.769 -1.0293  1.2129  0.5925
22734SOL    HW269644   7.802   6.125   7.917  1.3909 -2.1292  1.5175
22735SOL     OW69645   7.934   5.171   7.861 -0.0481 -0.2704 -0.2250
22735SOL    HW169646   7.966   5.217   7.939 -1.5071 -0.7356  0.6944
22735SOL    HW269647   7.913   5.241   7.799 -0.5131  0.2183  0.4670
22736SOL     OW69648   6.990   7.497   7.801  0.3499  0.2793  0.3712
22736SOL    HW169649   6.926   7.538   7.743 -1.0200 -0.5216  1.2681
22736SOL    HW269650   6.979   7.541   7.885  0.4441 -0.3628  0.7322
22737SOL     OW69651   6.936   6.057   7.033 -0.4703  0.6458  0.3830
22737SOL    HW169652   6.873   5.987   7.048 -1.9452  1.8735  0.1938
22737SOL    HW269653   6.887   6.123   6.984  1.3926  1.0211 -1.1109
22738SOL     OW69654   7.790   5.485   7.954 -0.1535 -0.0797  0.5298
22738SOL    HW169655   7.809   5.477   7.860  0.3646  0.1882  0.6113
22738SOL    HW269656   7.731   5.412   7.973  2.0938 -1.9438  0.6327
22739SOL     OW69657   7.668   7.726   9.611 -0.1969 -0.0969  0.1245
22739SOL    HW169658   7.758   7.757   9.601 -0.3529  0.3023 -0.0762
22739SOL    HW269659   7.675   7.631   9.610  0.1981 -0.0675 -0.1017
22740SOL     OW69660   6.661   6.439   9.738  0.3478 -0.1129 -0.0976
22740SOL    HW169661   6.703   6.361   9.776  1.0260 -0.3479 -1.2741
22740SOL    HW269662   6.571   6.436   9.770  1.0221  0.0299  1.9540
22741SOL     OW69663   7.039   5.643   8.153  0.0759 -0.4152  1.1150
22741SOL    HW169664   7.038   5.738   8.160  0.1216 -0.4542  1.7152
22741SOL    HW269665   6.988   5.624   8.074  1.5416  0.1836 -0.0349
22742SOL     OW69666   7.321   6.231   9.399 -0.4580 -0.5883 -0.5349
22742SOL    HW169667   7.367   6.267   9.475 -0.9972  0.9508 -0.8961
22742SOL    HW269668   7.229   6.242   9.420 -0.6213 -1.1632 -0.9504
22743SOL     OW69669   7.306   5.884   9.891 -0.3797 -0.1510  0.2158
22743SOL    HW169670   7.349   5.908   9.809 -0.0911 -0.8364  0.1615
22743SOL    HW269671   7.379   5.873   9.953 -0.5778  0.0966  0.4945
22744SOL     OW69672   6.702   7.656   7.928 -0.2526 -0.6874 -1.1028
22744SOL    HW169673   6.626   7.692   7.882  0.9237 -0.6334 -3.1448
22744SOL    HW269674   6.763   7.729   7.934  0.0009 -0.9591 -0.2860
22745SOL     OW69675   0.469   1.252   8.175  0.6341  0.0066  0.3889
22745SOL    HW169676   0.383   1.215   8.194  0.1113 -1.0365 -3.1967
22745SOL    HW269677   0.527   1.215   8.242 -1.2664 -1.1458  1.4721
22746SOL     OW69678   5.579   7.192   9.188  0.3585  0.5217  0.0190
22746SOL    HW169679   5.605   7.112   9.141 -0.1471 -0.7787  1.8489
22746SOL    HW269680   5.632   7.190   9.268 -0.8001  1.1791  0.8192
22747SOL     OW69681   6.276   5.071   8.072  0.1130  0.1091 -0.0232
22747SOL    HW169682   6.367   5.101   8.086 -0.7913  1.9259  3.0212
22747SOL    HW269683   6.266   4.997   8.132 -0.5647  0.2807  0.0802
22748SOL     OW69684   0.352   5.709   9.057  0.0285  0.0384  0.7060
22748SOL    HW169685   0.279   5.722   9.118  0.6441 -0.8652  1.6859
22748SOL    HW269686   0.409   5.646   9.102  0.5515 -0.5881 -0.7769
22749SOL     OW69687   5.926   6.060  10.265  0.0047 -0.6153  0.3807
22749SOL    HW169688   5.842   6.099  10.289  0.3880  0.7801 -0.4223
22749SOL    HW269689   5.932   5.981  10.319 -1.8238 -0.7719  0.4367
22750SOL     OW69690   6.149   5.654   9.641  0.0641 -1.0818  0.2869
22750SOL    HW169691   6.218   5.639   9.577  1.0479 -0.7784  1.2399
22750SOL    HW269692   6.098   5.573   9.641 -0.5331 -0.7626 -1.5164
22751SOL     OW69693   7.162   4.935   8.452 -0.4809  0.2557 -0.0445
22751SOL    HW169694   7.070   4.959   8.443 -0.0975  1.1382 -2.4636
22751SOL    HW269695   7.193   4.925   8.362  1.5560 -0.9945  0.7362
22752SOL     OW69696   7.060   6.313  10.022  0.1291  0.3594  0.2373
22752SOL    HW169697   7.136   6.262   9.994 -0.4188  0.0660 -0.7593
22752SOL    HW269698   6.985   6.261   9.994 -0.4449  1.5309 -0.4736
22753SOL     OW69699   5.067   1.105   9.668  0.0862 -0.3551  0.1389
22753SOL    HW169700   5.157   1.080   9.649 -0.2035 -0.5960 -1.0228
22753SOL    HW269701   5.014   1.038   9.624 -0.6671  0.0053  0.4759
22754SOL     OW69702   7.075   6.313   8.223  0.6598  0.0668  0.3137
22754SOL    HW169703   7.149   6.282   8.170  0.6660 -0.0851  0.4120
22754SOL    HW269704   7.093   6.281   8.311  0.6436  0.3129  0.4076
22755SOL     OW69705   5.270   5.118   9.147 -0.2820  0.2412 -0.3673
22755SOL    HW169706   5.235   5.139   9.233 -0.1412  0.3191 -0.3278
22755SOL    HW269707   5.354   5.076   9.165 -1.1121 -1.5024 -0.4056
22756SOL     OW69708   6.847   7.200   6.833 -0.2424  0.2898 -0.3962
22756SOL    HW169709   6.933   7.241   6.835 -0.3419  0.4966 -0.3040
22756SOL    HW269710   6.852   7.130   6.899  0.0597 -0.1193 -0.8437
22757SOL     OW69711   6.189   6.466   7.478 -0.4536 -0.7272 -0.0788
22757SOL    HW169712   6.209   6.548   7.434 -1.6706 -0.2805  0.1742
22757SOL    HW269713   6.098   6.447   7.456 -0.3914 -1.6712  0.3957
22758SOL     OW69714   7.646   4.762   6.656 -0.5724  0.1802  0.3655
22758SOL    HW169715   7.699   4.730   6.729  1.1615  1.0987 -0.4256
22758SOL    HW269716   7.704   4.822   6.609 -1.5276 -0.5554 -1.9071
22759SOL     OW69717   6.010   6.000   8.195  0.3484  0.4972  0.4043
22759SOL    HW169718   6.007   5.908   8.221  3.9643  0.5572  1.6000
22759SOL    HW269719   5.943   6.043   8.248 -1.4238 -1.3409 -0.1939
22760SOL     OW69720   6.195   6.865   9.089 -0.0689  0.3343  0.1981
22760SOL    HW169721   6.205   6.851   8.994 -0.7388 -2.2369  0.4215
22760SOL    HW269722   6.276   6.829   9.126 -0.0084  0.9238  0.6337
22761SOL     OW69723   1.647   6.560  10.986  0.1942  0.5174  0.7202
22761SOL    HW169724   1.581   6.499  11.021  0.1781  0.0383 -0.1155
22761SOL    HW269725   1.729   6.512  10.991  0.0413  0.0569 -0.7901
22762SOL     OW69726   5.128   5.383   9.069 -0.3976 -0.1612  0.3354
22762SOL    HW169727   5.105   5.360   8.979  0.0255 -0.3168  0.2651
22762SOL    HW269728   5.189   5.316   9.096 -0.8526 -0.3562  0.8941
22763SOL     OW69729   5.685   5.208  10.808  0.5247 -0.1371 -0.0892
22763SOL    HW169730   5.705   5.161  10.889  0.6905  0.4909  0.2379
22763SOL    HW269731   5.601   5.251  10.826 -0.3563 -1.4635 -0.8929
22764SOL     OW69732   7.025   6.193   7.605  0.3837 -0.3532 -0.1909
22764SOL    HW169733   6.941   6.223   7.570  0.7418  1.0189  0.0441
22764SOL    HW269734   7.060   6.270   7.650  1.0626 -1.3570  1.0445
22765SOL     OW69735   6.958   6.166   6.569  0.1183 -0.5770  0.2776
22765SOL    HW169736   6.985   6.105   6.501  0.0866 -0.4727  0.1724
22765SOL    HW269737   6.878   6.206   6.535  1.9265  2.0525 -1.1711
22766SOL     OW69738   6.439   7.018   5.963  0.6382 -0.0049  0.2388
22766SOL    HW169739   6.473   7.108   5.961  1.4460 -0.3118 -0.8079
22766SOL    HW269740   6.478   6.980   6.041  2.3659 -0.1806 -0.6396
22767SOL     OW69741   6.733   5.265  10.568  0.1508  0.8857  0.3324
22767SOL    HW169742   6.723   5.197  10.635 -0.9526  0.2708 -0.4240
22767SOL    HW269743   6.643   5.287  10.544  0.5122  0.3420 -1.6858
22768SOL     OW69744   7.022   5.725   7.063  0.4667  0.0630  0.1204
22768SOL    HW169745   6.953   5.783   7.097 -2.2518 -1.0848 -2.9442
22768SOL    HW269746   6.986   5.637   7.073  1.6997 -0.6234 -1.1469
22769SOL     OW69747   0.657   6.319   9.959 -0.3011  0.0755 -0.5995
22769SOL    HW169748   0.704   6.364   9.889  0.8133 -0.0877  0.0317
22769SOL    HW269749   0.658   6.382  10.031  3.2147 -1.6424  1.0792
22770SOL     OW69750   5.728   7.031   9.333  0.0044 -0.3632  0.1312
22770SOL    HW169751   5.779   7.043   9.253  1.4858 -0.4329  1.0255
22770SOL    HW269752   5.728   6.936   9.347  1.0063 -0.2597  0.9642
22771SOL     OW69753   5.381   5.033   7.017 -0.4229 -0.2554 -0.4034
22771SOL    HW169754   5.293   5.066   7.004  0.2853  1.6322 -0.7481
22771SOL    HW269755   5.388   4.959   6.956 -1.3751  0.3336 -1.2663
22772SOL     OW69756   0.178   5.981   6.656 -0.1255 -0.5786 -0.2470
22772SOL    HW169757   0.217   5.948   6.737 -0.9907 -0.5413  0.1902
22772SOL    HW269758   0.194   5.911   6.592 -0.2841 -1.0313  0.1993
22773SOL     OW69759   7.459   7.050  10.050  0.2309  0.3891  0.2757
22773SOL    HW169760   7.531   7.029   9.990  0.6271  1.3219  0.3898
22773SOL    HW269761   7.396   6.980  10.038  1.8104 -1.2880  1.2578
22774SOL     OW69762   5.184   5.737  10.083 -0.3449 -0.2351 -0.2604
22774SOL    HW169763   5.145   5.717  10.168  1.0411  0.1429  0.5007
22774SOL    HW269764   5.111   5.768  10.029 -1.0663  0.6656  1.1672
22775SOL     OW69765   7.791   7.186   8.337 -0.2134  0.0982 -0.2683
22775SOL    HW169766   7.759   7.129   8.267 -0.1043 -0.2804 -0.0163
22775SOL    HW269767   7.878   7.214   8.308 -0.9129  1.4674 -1.1463
22776SOL     OW69768   7.282   7.785   9.005 -0.7280  0.2654 -0.2627
22776SOL    HW169769   7.359   7.779   8.948 -1.4832 -0.0745 -1.2665
22776SOL    HW269770   7.229   7.856   8.968 -0.2316  1.5342  1.2923
22777SOL     OW69771   7.306   5.695   5.908 -0.2425  0.3173 -0.4084
22777SOL    HW169772   7.347   5.761   5.964  0.4694 -1.1430  0.8806
22777SOL    HW269773   7.273   5.629   5.968 -1.0338 -0.4675 -1.6456
22778SOL     OW69774   5.976   5.738   8.260  0.1308  0.5223  0.3078
22778SOL    HW169775   6.023   5.733   8.343 -1.1206  0.0903  1.0136
22778SOL    HW269776   6.009   5.664   8.209  2.3894  1.9282 -0.4364
22779SOL     OW69777   7.617   5.842   7.378 -0.5253  0.2374 -0.4676
22779SOL    HW169778   7.692   5.901   7.386 -0.0869 -0.2663 -0.7672
22779SOL    HW269779   7.570   5.852   7.461 -0.3772  0.8934 -0.4596
22780SOL     OW69780   5.866   7.371   6.937  0.3925  0.2044 -0.1706
22780SOL    HW169781   5.812   7.444   6.966  0.0314 -0.8873  2.1598
22780SOL    HW269782   5.952   7.388   6.977 -0.1876 -1.4751  2.0053
22781SOL     OW69783   6.088   3.678   9.723  0.4659  0.3733 -0.7564
22781SOL    HW169784   6.065   3.592   9.687  0.2747  0.3540 -0.5891
22781SOL    HW269785   6.054   3.677   9.812  0.1062  0.7697 -0.8850
22782SOL     OW69786   6.620   5.484  11.348 -0.2939 -0.1273 -0.3560
22782SOL    HW169787   6.629   5.478  11.443 -2.7724 -0.2101 -0.0587
22782SOL    HW269788   6.610   5.393  11.320  1.3760 -0.1880 -0.8628
22783SOL     OW69789   0.193   4.378  10.104  0.4739  0.1056  0.0732
22783SOL    HW169790   0.157   4.293  10.077  0.6781 -0.1131  0.4790
22783SOL    HW269791   0.116   4.430  10.126  0.2937  0.3398 -1.0573
22784SOL     OW69792   7.225   6.043   6.424  0.0409 -0.0659  0.5507
22784SOL    HW169793   7.310   5.998   6.428  0.1314 -0.2823 -1.9595
22784SOL    HW269794   7.161   5.977   6.451  0.4545 -0.8043 -0.2166
22785SOL     OW69795   4.128   7.602   8.348 -0.3533  0.2309  0.0093
22785SOL    HW169796   4.211   7.643   8.371 -1.5067  1.4430  2.4136
22785SOL    HW269797   4.129   7.518   8.394  0.1461 -0.4615 -1.2308
22786SOL     OW69798   7.709   6.143   8.329  0.2261 -0.1667 -0.0232
22786SOL    HW169799   7.692   6.079   8.398  5.0379 -2.5859 -0.6565
22786SOL    HW269800   7.775   6.202   8.366  0.6449  0.3687 -1.5390
22787SOL     OW69801   5.617   6.012   9.413 -0.0008  0.2846  0.1143
22787SOL    HW169802   5.625   5.917   9.420 -0.2531  0.3271  1.2519
22787SOL    HW269803   5.701   6.045   9.447 -0.2153  0.4725  0.4688
22788SOL     OW69804   5.643   6.660   9.228  0.0539 -0.7213  0.3407
22788SOL    HW169805   5.696   6.605   9.170 -0.1131  0.3602 -0.8878
22788SOL    HW269806   5.575   6.697   9.171  0.3782  1.0430  1.0120
22789SOL     OW69807   5.505   5.945   7.381 -0.3483  0.7909 -0.2404
22789SOL    HW169808   5.584   5.894   7.397 -0.0344  1.4534  0.4031
22789SOL    HW269809   5.513   6.021   7.440 -1.2859  1.0511 -0.4253
22790SOL     OW69810   5.981   6.771   9.202 -0.6619 -0.1951  0.2018
22790SOL    HW169811   6.054   6.815   9.157 -1.3436  0.4537 -0.2978
22790SOL    HW269812   5.977   6.684   9.161  0.2305 -0.4677  0.6801
22791SOL     OW69813   6.321   5.525  10.114 -0.4998 -0.5604 -0.1979
22791SOL    HW169814   6.390   5.476  10.160  1.0785  1.3939 -0.3614
22791SOL    HW269815   6.349   5.526  10.022 -0.9080 -0.0157 -0.3231
22792SOL     OW69816   0.115   6.728   8.188 -0.4904 -0.2823 -0.5756
22792SOL    HW169817   0.145   6.732   8.279  0.3807 -0.1830 -0.8582
22792SOL    HW269818   0.070   6.644   8.182  0.1169 -0.6369 -0.2495
22793SOL     OW69819   5.643   7.591   8.683  0.3110  0.0617  0.4121
22793SOL    HW169820   5.627   7.623   8.594  2.3262  0.9830  0.3214
22793SOL    HW269821   5.662   7.669   8.734  0.8759 -0.6040  1.2548
22794SOL     OW69822   6.340   5.268   8.439 -0.1098  0.0554 -0.0760
22794SOL    HW169823   6.416   5.261   8.380 -0.1074  0.1857 -0.0876
22794SOL    HW269824   6.266   5.241   8.385 -0.0272 -0.3899  0.0271
22795SOL     OW69825   6.609   6.289   9.468 -0.2671  0.0172  0.2708
22795SOL    HW169826   6.645   6.333   9.390 -0.9326 -2.1711 -1.3925
22795SOL    HW269827   6.599   6.358   9.533 -0.1625  2.0686 -1.7720
22796SOL     OW69828   7.485   5.815   7.622  0.0732  0.3931  0.2172
22796SOL    HW169829   7.422   5.795   7.690  1.0298  0.1220  1.0370
22796SOL    HW269830   7.570   5.791   7.659  0.6557  0.6484 -0.9005
22797SOL     OW69831   5.688   7.849   7.375 -0.3584  0.5230 -0.7563
22797SOL    HW169832   5.671   7.833   7.282 -1.8650  0.0943 -0.4250
22797SOL    HW269833   5.602   7.846   7.416  0.5279 -2.8030  1.1795
22798SOL     OW69834   4.982   6.604   8.643  0.3360  0.2688 -0.2658
22798SOL    HW169835   5.034   6.608   8.724 -1.6850  0.0705  1.1321
22798SOL    HW269836   4.912   6.669   8.657 -1.3270 -1.3123 -0.8657
22799SOL     OW69837   6.078   5.919   9.040  0.3247  0.6782 -0.4201
22799SOL    HW169838   6.042   5.926   9.129  1.6563 -0.6943  0.2572
22799SOL    HW269839   6.004   5.888   8.987  0.1034 -0.7564  0.6669
22800SOL     OW69840   7.058   6.161   7.333 -0.4978  0.0682  0.3676
22800SOL    HW169841   7.072   6.156   7.428 -0.5767  0.1747  0.3848
22800SOL    HW269842   6.983   6.219   7.323  0.5349  1.4325  0.1690
22801SOL     OW69843   7.515   7.775   8.880 -0.0968  0.6793  0.1002
22801SOL    HW169844   7.583   7.764   8.814 -0.3479  1.8057 -0.3575
22801SOL    HW269845   7.561   7.807   8.958  0.1054 -0.0357  0.2847
22802SOL     OW69846   6.004   7.389   6.373  0.4847 -0.2751  0.1136
22802SOL    HW169847   5.964   7.347   6.449  0.6119 -1.7210 -0.5759
22802SOL    HW269848   6.096   7.362   6.376  0.4614 -0.4668 -0.6087
22803SOL     OW69849   6.463   5.300   7.409  0.4686  0.9375  0.3283
22803SOL    HW169850   6.422   5.215   7.393 -0.4467  0.9996  2.1047
22803SOL    HW269851   6.393   5.354   7.447  0.6912  2.9060 -1.8521
22804SOL     OW69852   5.545   5.084   6.301  0.1769  0.2821  0.3087
22804SOL    HW169853   5.453   5.069   6.324 -0.9930  3.6205 -1.5370
22804SOL    HW269854   5.583   5.122   6.380 -0.8641  1.6079  0.2124
22805SOL     OW69855   7.069   6.700   6.920  0.1525  0.7260  0.0037
22805SOL    HW169856   7.107   6.759   6.985  0.1385 -2.9000  3.6715
22805SOL    HW269857   6.980   6.684   6.950 -0.0574 -0.6716 -1.2295
22806SOL     OW69858   5.666   7.974   8.485  0.0611  0.1671 -0.0532
22806SOL    HW169859   5.628   8.052   8.446  0.2891 -0.0917 -0.8210
22806SOL    HW269860   5.603   7.946   8.551 -0.9014 -0.0343 -1.0273
22807SOL     OW69861   7.001   4.261   6.519 -0.1594 -0.5697  0.3442
22807SOL    HW169862   6.968   4.342   6.558 -1.7658 -0.4707 -1.0833
22807SOL    HW269863   6.938   4.194   6.547  1.6474 -1.5834  2.2685
22808SOL     OW69864   6.365   5.900   7.843 -0.1770 -0.7205  0.2325
22808SOL    HW169865   6.457   5.926   7.852 -0.6759  1.5238 -0.4576
22808SOL    HW269866   6.343   5.863   7.928  1.1530 -0.5878  0.6696
22809SOL     OW69867   6.081   4.691   7.662  0.2101 -0.3064  0.5064
22809SOL    HW169868   6.093   4.782   7.634  0.7094 -0.2048  1.0248
22809SOL    HW269869   6.167   4.666   7.698  0.5329 -1.4579 -0.9786
22810SOL     OW69870   7.440   0.171   9.610  0.2881 -0.4029 -0.2816
22810SOL    HW169871   7.417   0.209   9.694  0.4491 -1.1693  0.1208
22810SOL    HW269872   7.472   0.083   9.631 -0.3806 -0.8969 -1.1950
22811SOL     OW69873   0.015   5.486   8.694 -0.6146 -0.2561  0.8689
22811SOL    HW169874   0.103   5.487   8.733 -1.1711 -0.1801  2.1395
22811SOL    HW269875  -0.043   5.517   8.763 -1.5519  0.5178 -0.2255
22812SOL     OW69876   4.157   7.214   6.506 -0.1694 -0.1378  0.0168
22812SOL    HW169877   4.119   7.163   6.578 -1.3651  0.5721 -0.0709
22812SOL    HW269878   4.122   7.172   6.427  0.6852 -0.5686 -0.1389
22813SOL     OW69879   6.307   0.529   7.688 -0.1139  0.2383 -0.3464
22813SOL    HW169880   6.352   0.613   7.694  0.0228  0.3264 -2.1391
22813SOL    HW269881   6.366   0.468   7.733  0.1645  0.9334  0.2674
22814SOL     OW69882   5.383   7.538   7.385 -0.2854 -0.7526  0.2437
22814SOL    HW169883   5.331   7.508   7.310 -1.0557  0.0251  0.4569
22814SOL    HW269884   5.348   7.489   7.460  0.4151 -1.4528  0.1247
22815SOL     OW69885   1.011   7.183   6.796  0.1265  0.6997  0.5446
22815SOL    HW169886   0.961   7.209   6.873  0.8083  2.4222  0.4487
22815SOL    HW269887   1.101   7.175   6.826  0.7622  3.3762 -0.4060
22816SOL     OW69888   6.172   0.127   7.924 -0.1321 -0.4600 -0.0821
22816SOL    HW169889   6.134   0.106   8.009  1.1598 -0.7880  0.4347
22816SOL    HW269890   6.257   0.166   7.944  0.5801 -1.3483 -1.2307
22817SOL     OW69891   5.906   6.262   9.107 -0.6722 -0.0536 -0.0918
22817SOL    HW169892   5.959   6.190   9.141 -0.2116  0.4136  0.1965
22817SOL    HW269893   5.866   6.227   9.027 -0.7361 -0.7388  0.2292
22818SOL     OW69894   7.215   6.125   5.985  0.3147  0.0180  0.8042
22818SOL    HW169895   7.162   6.125   5.905  1.3856  2.7808 -0.0174
22818SOL    HW269896   7.151   6.117   6.056 -1.1007  1.6343 -0.2039
22819SOL     OW69897   6.841   5.942  10.414  0.0587 -0.2364 -0.1991
22819SOL    HW169898   6.839   5.858  10.462  1.1912 -0.8586 -1.1937
22819SOL    HW269899   6.795   5.923  10.332  0.2490  0.1308 -0.3914
22820SOL     OW69900   0.080   4.771   9.213 -0.6324  0.2375  0.0405
22820SOL    HW169901  -0.006   4.729   9.224 -0.6411  0.3407  0.3915
22820SOL    HW269902   0.107   4.793   9.302 -0.0098 -0.2539 -0.0239
22821SOL     OW69903   4.841   7.897   6.376  0.6219  0.4414  0.1517
22821SOL    HW169904   4.795   7.838   6.436 -0.9800  1.2956 -0.1570
22821SOL    HW269905   4.796   7.886   6.293  0.8654  1.4460 -0.1261
22822SOL     OW69906   5.977   5.632   9.216 -0.2328  0.0556  0.3043
22822SOL    HW169907   6.007   5.722   9.229 -0.0004  0.2387 -1.3824
22822SOL    HW269908   6.054   5.586   9.182  0.2645 -1.3180  2.9889
22823SOL     OW69909   6.182   5.149   7.254  0.4695 -1.3299  0.4809
22823SOL    HW169910   6.155   5.182   7.339 -0.2719 -0.8300  0.0517
22823SOL    HW269911   6.126   5.072   7.239 -1.2800  0.1013 -0.7143
22824SOL     OW69912   4.883   6.569   8.164  0.2879  0.0427  0.3556
22824SOL    HW169913   4.846   6.520   8.237 -0.2588 -0.3632 -0.1848
22824SOL    HW269914   4.966   6.524   8.144  0.8475  0.6550  1.2462
22825SOL     OW69915   6.626   5.603   9.710  0.1031 -0.3160 -0.3158
22825SOL    HW169916   6.642   5.697   9.710  0.7674 -0.4217 -0.7116
22825SOL    HW269917   6.641   5.575   9.620  0.9370 -0.9517 -0.0022
22826SOL     OW69918   6.567   5.453   5.525 -0.0253  0.3441  0.5116
22826SOL    HW169919   6.478   5.419   5.515 -0.6557  2.0313  0.0544
22826SOL    HW269920   6.598   5.467   5.436  1.1730 -1.2723  0.6179
22827SOL     OW69921   7.465   5.243   7.362 -0.2801  0.1350 -0.2917
22827SOL    HW169922   7.498   5.183   7.296 -0.5213 -0.2500 -0.0653
22827SOL    HW269923   7.439   5.321   7.313 -3.4317 -1.2954 -1.1448
22828SOL     OW69924   6.612   6.171   7.234 -0.2152 -0.1211  0.0595
22828SOL    HW169925   6.590   6.164   7.141 -2.6758 -1.4519  0.6523
22828SOL    HW269926   6.583   6.088   7.272  1.4210  0.0913  1.9169
22829SOL     OW69927   7.462   7.004   6.611  0.0331 -0.8339  0.2410
22829SOL    HW169928   7.391   6.990   6.549  0.2462  0.2263 -0.2643
22829SOL    HW269929   7.495   6.916   6.630  0.9132 -1.1362 -2.2754
22830SOL     OW69930   6.656   6.346   7.909 -0.4825  0.1398 -0.4178
22830SOL    HW169931   6.746   6.365   7.884  0.3003 -0.5681  1.6853
22830SOL    HW269932   6.635   6.411   7.976  0.1147 -2.3827  2.4175
22831SOL     OW69933   6.507   5.698   7.121  0.1689  0.2505 -0.2956
22831SOL    HW169934   6.423   5.739   7.143  0.0515 -0.7917  1.3998
22831SOL    HW269935   6.498   5.673   7.029 -1.3650  0.2186 -0.1743
22832SOL     OW69936   5.478   7.101   8.329 -0.3199 -0.7124 -0.1672
22832SOL    HW169937   5.450   7.172   8.387 -0.9111 -0.2266 -1.0327
22832SOL    HW269938   5.436   7.120   8.246 -0.6578 -2.2174 -0.3521
22833SOL     OW69939   6.714   6.815   7.722  0.3302  0.4392 -0.3242
22833SOL    HW169940   6.793   6.780   7.681  0.0561 -1.2004  0.4558
22833SOL    HW269941   6.642   6.772   7.676 -0.0713  0.9736 -0.2047
22834SOL     OW69942   5.978   7.252   8.825  0.4428 -0.1123 -0.2651
22834SOL    HW169943   6.040   7.219   8.889  0.1744  1.3927  0.8300
22834SOL    HW269944   6.019   7.236   8.740  1.6880 -0.3889  0.3803
22835SOL     OW69945   6.926   6.319   5.834  0.1743 -0.2929 -0.2145
22835SOL    HW169946   6.965   6.350   5.752 -1.0534 -0.3451 -0.8388
22835SOL    HW269947   6.933   6.224   5.830  0.2739 -0.2870 -0.1776
22836SOL     OW69948   6.878   4.966   7.591 -0.2767 -0.3512 -0.0046
22836SOL    HW169949   6.942   5.021   7.546  0.9376 -2.0534 -0.4512
22836SOL    HW269950   6.802   5.023   7.604 -0.1813  0.6188 -2.9729
22837SOL     OW69951   5.582   6.591   7.629 -0.3750  0.7916  0.1561
22837SOL    HW169952   5.651   6.530   7.602 -2.0222 -1.2448  0.3455
22837SOL    HW269953   5.536   6.545   7.700 -1.7022  2.2470  0.2880
22838SOL     OW69954   7.754   6.331   7.252  0.1168  0.1565  0.0586
22838SOL    HW169955   7.775   6.398   7.317 -1.9993  0.8884  0.0583
22838SOL    HW269956   7.660   6.319   7.260 -1.0365  2.8566 -5.1403
22839SOL     OW69957   1.475   7.531   7.375  0.2517  0.0040 -0.8430
22839SOL    HW169958   1.440   7.561   7.459 -0.7706 -2.6257 -0.2351
22839SOL    HW269959   1.463   7.606   7.316 -1.2835  1.0923  0.7449
22840SOL     OW69960   4.497   6.806   6.835 -0.5178 -0.0974 -0.1720
22840SOL    HW169961   4.447   6.868   6.782 -0.1064  0.7432  0.3979
22840SOL    HW269962   4.448   6.800   6.917 -0.6370 -0.6514 -0.2811
22841SOL     OW69963   5.798   0.264   8.148  0.5069 -0.3723 -0.1949
22841SOL    HW169964   5.847   0.335   8.105 -0.0817  1.3945  1.8817
22841SOL    HW269965   5.827   0.267   8.239 -0.9497 -1.5660  0.3444
22842SOL     OW69966   5.971   6.803   7.471  0.0580  0.2522  0.1688
22842SOL    HW169967   6.030   6.874   7.446  2.2539 -2.0472 -1.7071
22842SOL    HW269968   6.007   6.770   7.553 -0.8116  1.0899  0.9069
22843SOL     OW69969   6.473   6.708   6.383 -0.3955  0.1199 -0.0549
22843SOL    HW169970   6.418   6.652   6.328 -0.2354  0.9043 -1.0477
22843SOL    HW269971   6.546   6.651   6.409  0.0196 -0.0367 -1.4550
22844SOL     OW69972   6.992   0.310   7.691  0.2842 -0.1978  0.0119
22844SOL    HW169973   6.937   0.272   7.623  0.5197  0.0801 -0.3322
22844SOL    HW269974   6.938   0.306   7.770  0.0515 -0.6170 -0.1643
22845SOL     OW69975   5.331   0.476  11.256  0.1378  0.0402  0.6427
22845SOL    HW169976   5.361   0.466  11.166 -1.5400 -0.2884  0.0881
22845SOL    HW269977   5.381   0.410  11.305  1.0968  0.2525 -0.0258
22846SOL     OW69978   6.528   6.138   7.743  0.3263 -0.1274  0.3481
22846SOL    HW169979   6.506   6.177   7.658  0.4881 -0.2344  0.2582
22846SOL    HW269980   6.542   6.212   7.801  1.3356 -0.0382  0.0048
22847SOL     OW69981   7.019   7.175   7.437 -0.5596  0.2147  0.1677
22847SOL    HW169982   7.111   7.201   7.439 -0.7229  0.8032  0.5520
22847SOL    HW269983   7.007   7.125   7.518 -0.4027 -0.5203 -0.2536
22848SOL     OW69984   0.872   5.594   8.968 -0.3421  0.1487  0.3653
22848SOL    HW169985   0.890   5.609   8.875 -0.1572  0.3704  0.4344
22848SOL    HW269986   0.778   5.577   8.972 -0.0681 -1.6925 -0.0866
22849SOL     OW69987   4.583   7.763   8.497  0.4126  0.0392 -0.4431
22849SOL    HW169988   4.539   7.848   8.489  0.3156  0.1923  1.3395
22849SOL    HW269989   4.511   7.700   8.510  0.5963  0.1156  1.1762
22850SOL     OW69990   0.331   6.780   9.414  0.5948  0.2135 -0.1363
22850SOL    HW169991   0.370   6.858   9.375  1.1901 -0.8090 -1.7241
22850SOL    HW269992   0.248   6.809   9.451  0.9632  1.6482 -0.3897
22851SOL     OW69993   4.136   6.058   8.917 -0.3875  0.0864  0.2988
22851SOL    HW169994   4.088   5.984   8.879 -1.0959  0.4203  0.5292
22851SOL    HW269995   4.222   6.022   8.939  0.1552 -0.0697 -1.8163
22852SOL     OW69996   4.923   5.897   8.628  0.0819 -0.0485 -0.4117
22852SOL    HW169997   4.876   5.908   8.710 -0.2666 -2.3433 -0.2448
22852SOL    HW269998   5.015   5.889   8.654  0.2590  1.3764 -0.4833
22853SOL     OW69999   7.351   7.557   7.897 -0.2162  0.1648  0.2731
22853SOL    HW170000   7.265   7.525   7.868 -0.6158 -0.2737  1.8469
22853SOL    HW270001   7.410   7.482   7.883 -0.4195 -0.0680  0.6444
22854SOL     OW70002   5.203   5.861   7.833  0.3371 -0.3915 -0.7137
22854SOL    HW170003   5.266   5.872   7.904 -0.0088 -1.4992 -0.2120
22854SOL    HW270004   5.254   5.828   7.760  0.5663  0.0264 -0.7431
22855SOL     OW70005   7.289   7.876   6.608 -0.2532  0.0455  0.1839
22855SOL    HW170006   7.252   7.836   6.529  1.1338  0.7027 -0.8491
22855SOL    HW270007   7.307   7.966   6.583 -1.3073  0.7413  1.7945
22856SOL     OW70008   7.022   6.967   8.863  0.3956 -0.0250 -0.3302
22856SOL    HW170009   7.046   6.988   8.954  0.6319  0.1973 -0.4433
22856SOL    HW270010   6.930   6.944   8.868  0.5468 -0.5692  0.0605
22857SOL     OW70011   4.389   5.911   7.364 -0.3741  0.0241  0.2539
22857SOL    HW170012   4.444   5.972   7.316 -0.2707  0.5899  1.0709
22857SOL    HW270013   4.324   5.966   7.408 -0.5027 -0.4763  0.7058
22858SOL     OW70014   0.289   5.149   8.215 -0.2608  0.7561  0.5404
22858SOL    HW170015   0.344   5.226   8.229 -1.1964  1.3286  1.1345
22858SOL    HW270016   0.221   5.178   8.154  0.3580 -0.0920 -0.6007
22859SOL     OW70017   6.132   6.224   8.252  0.2312 -0.7164  0.3330
22859SOL    HW170018   6.208   6.232   8.194 -0.1441 -1.3515 -0.2637
22859SOL    HW270019   6.112   6.130   8.253 -0.7997 -0.5172  0.1414
22860SOL     OW70020   6.066   5.761   7.638  0.1918 -0.1929 -0.5604
22860SOL    HW170021   6.095   5.844   7.677  1.9640 -0.3396 -1.4583
22860SOL    HW270022   6.013   5.720   7.705 -0.3097  1.4397  0.0970
22861SOL     OW70023   5.856   0.862  10.412  0.1596 -0.1558  0.2819
22861SOL    HW170024   5.858   0.767  10.398 -0.8770 -0.5121  2.1416
22861SOL    HW270025   5.803   0.896  10.341  2.4316 -0.6245 -1.7721
22862SOL     OW70026   6.015   5.564   7.400  0.4901 -0.1377  0.0482
22862SOL    HW170027   5.981   5.532   7.483  0.0986  1.3623  0.4892
22862SOL    HW270028   5.944   5.547   7.337  0.3381 -0.2340  0.2455
22863SOL     OW70029   5.343   6.037   9.966  0.0315 -0.9973  0.4091
22863SOL    HW170030   5.266   6.001   9.921 -0.1860  0.1692 -0.1996
22863SOL    HW270031   5.340   6.131   9.946  0.7637 -0.6949  1.6593
22864SOL     OW70032   5.280   5.536   8.746  0.3523  0.2561 -0.3004
22864SOL    HW170033   5.301   5.596   8.674 -0.3366  0.6925 -0.1443
22864SOL    HW270034   5.187   5.549   8.761  0.2108 -0.8024 -0.2084
22865SOL     OW70035   5.692   0.343  11.758  0.0610 -0.1686  0.8373
22865SOL    HW170036   5.721   0.404  11.691 -3.0541  0.7642  0.2011
22865SOL    HW270037   5.765   0.282  11.767  1.7860  1.4106 -1.2028
22866SOL     OW70038   7.865   7.441  10.888  0.0403  0.7983  0.3423
22866SOL    HW170039   7.850   7.354  10.925 -2.0275  1.9368  2.5225
22866SOL    HW270040   7.835   7.501  10.957 -0.7540  3.1962 -1.9266
22867SOL     OW70041   6.383   5.881  10.951 -0.3362 -0.0763  0.5500
22867SOL    HW170042   6.423   5.911  10.869 -1.0109 -0.2722  0.1418
22867SOL    HW270043   6.318   5.816  10.923 -0.1288 -0.6158  1.2891
22868SOL     OW70044   0.251   5.480   8.900  0.2841 -0.3619  0.4574
22868SOL    HW170045   0.285   5.569   8.887  0.1264 -0.3143  0.3652
22868SOL    HW270046   0.202   5.485   8.982  0.0221 -0.2879  0.2974
22869SOL     OW70047   6.210   7.534   8.595 -0.1224 -0.5268  0.3298
22869SOL    HW170048   6.241   7.602   8.535  1.1409 -0.2870  1.2176
22869SOL    HW270049   6.227   7.569   8.682 -2.4610 -0.6279  0.8817
22870SOL     OW70050   6.044   5.869  10.472 -0.3297  0.4844 -0.0672
22870SOL    HW170051   6.028   5.780  10.441  1.5102 -0.1874  0.7537
22870SOL    HW270052   5.977   5.883  10.540 -1.4297  0.2353 -1.0755
22871SOL     OW70053   4.143   5.876  12.165  0.2971 -0.4418 -0.2366
22871SOL    HW170054   4.118   5.804  12.107 -1.2723 -0.8508  0.8773
22871SOL    HW270055   4.149   5.837  12.251 -2.8609  1.0359  0.8383
22872SOL     OW70056   5.097   7.732  11.099  0.1436  1.1918 -0.4798
22872SOL    HW170057   5.061   7.678  11.170 -2.4876  3.3506  0.0388
22872SOL    HW270058   5.158   7.675  11.053 -0.9998 -1.5397  1.1493
22873SOL     OW70059   5.035   7.317  10.403 -0.1808  0.6509  0.1714
22873SOL    HW170060   5.076   7.323  10.489  0.3236 -2.3387  0.2553
22873SOL    HW270061   5.107   7.318  10.341 -0.0704 -1.6885  0.1480
22874SOL     OW70062   6.515   7.545   9.494  0.4165  0.1772 -0.5076
22874SOL    HW170063   6.578   7.539   9.566  0.3604 -0.4448 -0.5120
22874SOL    HW270064   6.448   7.606   9.527  0.8598  0.6154 -0.3941
22875SOL     OW70065   6.976   6.572  10.496 -0.2406  0.1739 -0.6740
22875SOL    HW170066   6.981   6.481  10.523  0.8220  0.1663 -0.8282
22875SOL    HW270067   7.055   6.613  10.533 -0.8594  1.1025 -0.3420
22876SOL     OW70068   7.296   7.450   8.500  0.2114 -0.1166 -0.4529
22876SOL    HW170069   7.250   7.393   8.438 -0.2326  0.0375 -0.2643
22876SOL    HW270070   7.325   7.524   8.447 -0.0603 -0.0449 -0.5027
22877SOL     OW70071   7.333   6.970  10.473 -0.1310 -0.2338 -0.4275
22877SOL    HW170072   7.336   7.064  10.460  1.9903 -0.3225 -0.9170
22877SOL    HW270073   7.281   6.937  10.400 -0.5942  0.5208 -0.4433
22878SOL     OW70074   4.783   6.714  11.883 -0.6555 -0.7712  0.5146
22878SOL    HW170075   4.763   6.632  11.840 -2.4400  0.3072 -0.8379
22878SOL    HW270076   4.810   6.772  11.812  1.7570 -0.4572  1.5775
22879SOL     OW70077   5.203   7.046   9.616 -0.3166 -0.2497 -0.5874
22879SOL    HW170078   5.211   6.960   9.658  0.3394 -0.1661 -0.5211
22879SOL    HW270079   5.278   7.050   9.557  0.4405  0.8071  0.3997
22880SOL     OW70080   5.297   5.404   9.588  0.2668  0.3470 -0.4826
22880SOL    HW170081   5.301   5.486   9.539 -0.3285  0.9873  0.5194
22880SOL    HW270082   5.240   5.347   9.536  1.6716  0.0837 -1.8317
22881SOL     OW70083   3.771   7.571  12.030 -0.2061 -0.2849 -0.0248
22881SOL    HW170084   3.683   7.586  12.065  0.0666  0.8128  0.2341
22881SOL    HW270085   3.826   7.633  12.078  0.5410 -0.2569 -0.8958
22882SOL     OW70086   4.632   6.607   8.507  0.1006 -0.1384 -0.0495
22882SOL    HW170087   4.676   6.525   8.529 -0.4324  0.0866  2.0444
22882SOL    HW270088   4.539   6.588   8.516 -0.1389  0.1761 -1.5685
22883SOL     OW70089   7.687   5.218  11.617  0.4235 -0.5165 -0.2729
22883SOL    HW170090   7.663   5.303  11.654  0.4969 -0.8139  0.4665
22883SOL    HW270091   7.609   5.190  11.570 -0.6786 -1.3834  1.9459
22884SOL     OW70092   5.233   5.997  10.500  0.3903  0.1178 -0.0568
22884SOL    HW170093   5.199   5.947  10.574  1.3483  1.0541  1.0604
22884SOL    HW270094   5.268   5.931  10.440  0.3637 -0.6180  0.7238
22885SOL     OW70095   7.062   6.267   9.495 -0.4226  0.3160 -0.1649
22885SOL    HW170096   7.021   6.204   9.555 -0.1807 -0.9689 -1.3004
22885SOL    HW270097   7.013   6.348   9.508 -0.7891 -0.1122  1.2951
22886SOL     OW70098   4.739   6.608  10.361  0.4079  0.1887  0.5338
22886SOL    HW170099   4.741   6.623  10.456 -0.4042 -0.0756  0.6021
22886SOL    HW270100   4.816   6.553  10.344  0.1137 -0.4383  1.1729
22887SOL     OW70101   7.212   7.116   9.876  0.1162 -0.2039  0.1349
22887SOL    HW170102   7.250   7.029   9.893  0.0751 -0.2106  0.1939
22887SOL    HW270103   7.288   7.171   9.856  0.3536  0.2202  2.0680
22888SOL     OW70104   7.357   6.515   9.234  0.6449  0.4998  0.0638
22888SOL    HW170105   7.340   6.442   9.294 -0.2600  0.2162 -0.5221
22888SOL    HW270106   7.304   6.587   9.269 -3.3031 -0.7985 -2.5979
22889SOL     OW70107   7.494   6.248  10.971 -0.1186 -0.0878 -0.5874
22889SOL    HW170108   7.489   6.176  10.908 -1.5440 -0.6925  0.1642
22889SOL    HW270109   7.480   6.206  11.056  0.6188  0.8746  0.0279
22890SOL     OW70110   5.816   7.604   9.822 -0.2538  0.3590 -0.2870
22890SOL    HW170111   5.749   7.582   9.757 -0.0616 -1.1836  0.0032
22890SOL    HW270112   5.899   7.584   9.778 -0.0054  1.4847 -0.3543
22891SOL     OW70113   5.977   4.894  11.783  0.0025  0.1844 -0.2510
22891SOL    HW170114   6.022   4.941  11.853 -1.2304  1.0211  0.0063
22891SOL    HW270115   5.906   4.952  11.756 -0.4217 -0.7403 -1.2183
22892SOL     OW70116   7.646   6.594   8.666 -0.4593  0.9254 -0.2863
22892SOL    HW170117   7.658   6.554   8.752 -0.9879  0.6464 -0.3342
22892SOL    HW270118   7.710   6.550   8.610  0.3120  1.5390  0.0878
22893SOL     OW70119   4.573   7.082  11.844  0.7773 -0.6953 -0.2684
22893SOL    HW170120   4.494   7.135  11.853 -0.2565 -2.2329  0.2595
22893SOL    HW270121   4.626   7.129  11.780 -0.2381  0.7590 -0.1007
22894SOL     OW70122   6.618   4.771   9.682  0.4777  0.1917  0.2180
22894SOL    HW170123   6.617   4.782   9.778  2.0113 -0.0164  0.2802
22894SOL    HW270124   6.580   4.684   9.668 -1.0518  0.7782  0.5149
22895SOL     OW70125   6.625   7.524   0.095  0.0136  0.1929 -0.2900
22895SOL    HW170126   6.656   7.441   0.060 -0.0850 -0.9141  2.0532
22895SOL    HW270127   6.540   7.537   0.054  0.7691  0.0449 -1.9810
22896SOL     OW70128   6.191   7.826  12.273  0.1013 -0.0867  0.2064
22896SOL    HW170129   6.280   7.811  12.239 -0.2027  0.2066 -0.7631
22896SOL    HW270130   6.136   7.767  12.223  0.1401 -3.1953  3.4343
22897SOL     OW70131   7.079   7.082   9.152  0.3993 -0.3969 -0.5418
22897SOL    HW170132   7.053   7.165   9.113 -0.1447 -0.8529 -1.1927
22897SOL    HW270133   7.014   7.067   9.221  1.9140  0.8687  1.2523
22898SOL     OW70134   7.175   6.737   8.679  0.5708 -0.3767 -0.2672
22898SOL    HW170135   7.175   6.676   8.752  0.3272 -0.7098 -0.5395
22898SOL    HW270136   7.104   6.707   8.622  0.5480  0.0669 -0.4826
22899SOL     OW70137   5.018   7.537   9.525  0.1510  0.5942 -0.6251
22899SOL    HW170138   5.006   7.442   9.523 -0.2784  0.6148  0.1820
22899SOL    HW270139   5.066   7.553   9.607  0.3527  1.0599 -0.8304
22900SOL     OW70140   6.830   5.961  10.799  0.2389 -0.6232 -0.1145
22900SOL    HW170141   6.745   5.994  10.770  1.3085  1.4981 -1.0069
22900SOL    HW270142   6.811   5.874  10.834 -2.0050 -1.0101 -2.0343
22901SOL     OW70143   0.542   7.484   8.621 -0.1339  0.3898  0.0518
22901SOL    HW170144   0.629   7.491   8.660 -0.2842  0.1039  0.4382
22901SOL    HW270145   0.555   7.430   8.543 -0.0264  0.0600  0.2976
22902SOL     OW70146   5.377   6.813  10.718 -0.1012  0.8335 -0.1880
22902SOL    HW170147   5.403   6.767  10.798  0.7185 -0.0486 -0.9363
22902SOL    HW270148   5.388   6.905  10.739  1.2054  0.5758  0.3739
22903SOL     OW70149   7.658   5.909  12.065 -0.1043  0.8253  0.2669
22903SOL    HW170150   7.594   5.852  12.023  1.7002 -0.8195 -0.4341
22903SOL    HW270151   7.701   5.955  11.992  1.7331 -0.5982  0.3794
22904SOL     OW70152   4.733   7.345  11.888 -0.2419 -0.2083  0.1551
22904SOL    HW170153   4.638   7.345  11.880 -0.4630 -2.0378  2.0328
22904SOL    HW270154   4.756   7.437  11.898 -1.9480  0.1943  0.7469
22905SOL     OW70155   5.674   5.575   9.733  0.3488 -0.1306 -0.4089
22905SOL    HW170156   5.614   5.627   9.787 -0.4022  0.6821 -1.9657
22905SOL    HW270157   5.625   5.496   9.713 -0.0475  0.3359 -1.3127
22906SOL     OW70158   6.329   3.997   9.873 -0.3048 -0.1903  0.1224
22906SOL    HW170159   6.413   3.955   9.851 -0.2794  0.3316 -0.7972
22906SOL    HW270160   6.330   4.002   9.968  0.3257 -0.9813  0.1739
22907SOL     OW70161   5.364   7.357   7.930  0.0482  0.0430 -0.6041
22907SOL    HW170162   5.434   7.418   7.955 -0.5141  1.3423 -2.0181
22907SOL    HW270163   5.285   7.394   7.970 -0.0029 -0.8980  0.2028
22908SOL     OW70164   5.598   5.772   9.975 -0.2238  0.0626 -0.4757
22908SOL    HW170165   5.683   5.737  10.000 -0.8599 -1.0523  0.2270
22908SOL    HW270166   5.615   5.863   9.951  1.1942 -0.2197 -0.6074
22909SOL     OW70167   7.312   6.585   9.988  0.1400  0.2735  0.1444
22909SOL    HW170168   7.230   6.542  10.013  0.2399  0.2474  0.4211
22909SOL    HW270169   7.377   6.516   9.988  0.3699  0.4804  0.9212
22910SOL     OW70170   6.288   6.711   8.607  0.1893 -0.3640 -0.2399
22910SOL    HW170171   6.335   6.633   8.635 -0.0155  0.1606  1.6644
22910SOL    HW270172   6.351   6.759   8.552  1.6584 -0.0595  1.6190
22911SOL     OW70173   5.359   7.338   9.362 -0.1642 -0.1411  0.4201
22911SOL    HW170174   5.294   7.404   9.338  0.3271  0.1936  0.0264
22911SOL    HW270175   5.436   7.358   9.309 -0.2313 -1.4305 -0.2020
22912SOL     OW70176   0.878   0.732   8.803 -0.2511 -0.2329 -0.3776
22912SOL    HW170177   0.930   0.783   8.741  3.6931 -0.5201  2.3010
22912SOL    HW270178   0.880   0.643   8.769  1.4029 -0.2907 -0.1861
22913SOL     OW70179   0.054   6.933   8.750 -0.1520  0.1218  0.5909
22913SOL    HW170180   0.068   6.968   8.662 -0.9625 -0.3013  0.2898
22913SOL    HW270181  -0.041   6.937   8.763 -0.0417  0.2181  1.4656
22914SOL     OW70182   7.038   5.729  11.205 -0.5407 -0.1759 -0.1674
22914SOL    HW170183   6.958   5.694  11.245  0.0322 -1.4628 -0.0773
22914SOL    HW270184   7.062   5.804  11.259 -1.5027  0.0188 -0.0002
22915SOL     OW70185   4.544   5.504   7.884  0.1603 -0.3461 -0.0159
22915SOL    HW170186   4.502   5.587   7.904  1.0783  0.7284 -2.2520
22915SOL    HW270187   4.638   5.522   7.889  0.3953 -1.6714  0.9689
22916SOL     OW70188   6.287   6.572  10.919 -0.4346 -0.6672 -0.3668
22916SOL    HW170189   6.338   6.645  10.955  0.8048 -1.8817  0.4622
22916SOL    HW270190   6.328   6.552  10.835 -1.7138  0.5144 -1.3081
22917SOL     OW70191   3.505   7.978  11.983 -0.2828 -0.0819  0.1397
22917SOL    HW170192   3.499   7.909  11.917  1.7090  0.1956 -0.3826
22917SOL    HW270193   3.438   8.042  11.957 -2.4810 -1.9268  0.8836
22918SOL     OW70194   7.272   0.190   8.850  0.0628  0.2276  0.1344
22918SOL    HW170195   7.324   0.230   8.780 -1.5355  0.9728 -0.6751
22918SOL    HW270196   7.290   0.243   8.927 -0.4533  1.2654 -0.4426
22919SOL     OW70197   7.057   4.925  10.932  0.0555  0.3302 -0.0842
22919SOL    HW170198   7.070   5.003  10.879 -1.3986  1.8241  1.5986
22919SOL    HW270199   7.041   4.959  11.020  0.5441 -1.9461  0.9555
22920SOL     OW70200   6.905   6.463   8.047  0.1398 -0.1529 -0.1791
22920SOL    HW170201   6.836   6.506   8.097  0.3564 -0.3636  0.3079
22920SOL    HW270202   6.943   6.400   8.109 -0.7027 -1.6265 -1.0952
22921SOL     OW70203   7.922   6.102   8.566 -0.3460 -0.4626  0.1829
22921SOL    HW170204   7.884   6.032   8.514  0.0422 -0.0402 -0.6761
22921SOL    HW270205   7.869   6.103   8.646 -1.1250 -0.9333 -0.3134
22922SOL     OW70206   6.309   6.223   9.488 -0.3668 -0.1445  0.1649
22922SOL    HW170207   6.246   6.209   9.418 -0.7561 -1.1983  0.7043
22922SOL    HW270208   6.393   6.234   9.444 -0.7433  0.1275 -0.4987
22923SOL     OW70209   7.221   7.966  10.763 -0.2959 -0.2439 -0.0266
22923SOL    HW170210   7.300   7.996  10.808  0.0300  0.2222 -0.9006
22923SOL    HW270211   7.219   7.871  10.779 -0.6778  0.0299  1.7262
22924SOL     OW70212   6.238   7.156  10.527 -0.2420 -0.1967  0.1003
22924SOL    HW170213   6.223   7.223  10.460  1.1695 -1.1284 -1.1823
22924SOL    HW270214   6.275   7.082  10.480  1.1876 -0.7390  1.9638
22925SOL     OW70215   4.997   7.695  10.075  0.0452  0.0863  0.1486
22925SOL    HW170216   5.047   7.753  10.018 -0.4340 -0.5107 -0.9090
22925SOL    HW270217   5.056   7.679  10.149  0.6728  0.9042 -0.1491
22926SOL     OW70218   0.152   6.235  10.830 -0.1927 -0.3500 -0.3677
22926SOL    HW170219   0.118   6.263  10.915 -0.5241 -1.1846 -0.2187
22926SOL    HW270220   0.092   6.166  10.801  1.8022 -2.5291  0.3157
22927SOL     OW70221   6.117   6.682   7.678  0.2340 -0.3820  0.0707
22927SOL    HW170222   6.089   6.631   7.754  2.0644 -0.4043  0.7808
22927SOL    HW270223   6.129   6.617   7.609  0.0006 -0.5486  0.1833
22928SOL     OW70224   6.284   6.401  12.013 -0.0949  0.0859 -0.2525
22928SOL    HW170225   6.220   6.335  12.037 -0.0153  0.2371  0.3933
22928SOL    HW270226   6.237   6.484  12.020  0.2580  0.2325  0.6021
22929SOL     OW70227   5.650   6.151  11.045 -0.2340  0.2444  0.2512
22929SOL    HW170228   5.691   6.067  11.061  1.2069  0.7285 -0.7620
22929SOL    HW270229   5.572   6.131  10.993 -0.4320 -0.5247  0.8290
22930SOL     OW70230   6.902   6.935   9.661 -0.2892 -0.5863 -0.0070
22930SOL    HW170231   6.834   6.998   9.635  2.2152  1.4898 -2.2145
22930SOL    HW270232   6.872   6.852   9.625 -2.2699 -0.0690  0.2985
22931SOL     OW70233   5.007   5.642  10.288  0.1664 -0.5538  0.2408
22931SOL    HW170234   4.978   5.660  10.377  0.0201 -1.8366  0.4794
22931SOL    HW270235   4.964   5.559  10.265 -1.2775  0.6594 -1.7209
22932SOL     OW70236   3.882   5.453   9.815  0.1797  0.1892 -0.0414
22932SOL    HW170237   3.969   5.414   9.818  0.5025  0.7206 -1.4372
22932SOL    HW270238   3.875   5.488   9.726 -1.9165 -0.8841 -0.3495
22933SOL     OW70239   4.323   5.237   9.415 -0.0398  0.4012 -0.1779
22933SOL    HW170240   4.321   5.211   9.323  1.1993 -0.2613 -0.0425
22933SOL    HW270241   4.332   5.332   9.413  0.3187  0.3590 -0.7516
22934SOL     OW70242   7.554   5.067   9.432  0.2602  0.1289  0.2040
22934SOL    HW170243   7.561   4.986   9.382 -1.3258  0.4744 -0.6518
22934SOL    HW270244   7.508   5.128   9.373 -0.7552  0.8720  1.7022
22935SOL     OW70245   5.526   5.350   9.722 -0.2610 -0.4724 -0.1322
22935SOL    HW170246   5.476   5.379   9.646 -0.1598  0.6353  0.2036
22935SOL    HW270247   5.461   5.315   9.782 -0.5850  0.4510  0.0689
22936SOL     OW70248   7.562   7.026   9.176  0.1858 -0.2429 -0.5689
22936SOL    HW170249   7.480   7.033   9.127  0.4776 -0.7166 -1.1563
22936SOL    HW270250   7.547   7.074   9.257  0.2136  1.9623 -1.8045
22937SOL     OW70251   4.735   6.636  10.631 -0.0262  0.1410 -0.0710
22937SOL    HW170252   4.668   6.696  10.665  1.6658  2.2899 -0.3617
22937SOL    HW270253   4.774   6.597  10.710 -0.9677 -0.4408  0.1266
22938SOL     OW70254   7.610   6.678   8.108  0.0696 -0.3071 -0.2814
22938SOL    HW170255   7.558   6.752   8.075 -1.1416 -1.0966 -0.1876
22938SOL    HW270256   7.640   6.633   8.028 -1.7254 -1.4317 -0.3675
22939SOL     OW70257   5.984   7.107   8.249 -0.1357 -0.1327  0.2616
22939SOL    HW170258   5.985   7.101   8.154  1.0534  0.5654  0.2138
22939SOL    HW270259   5.923   7.039   8.277 -1.5592  0.5457 -1.0526
22940SOL     OW70260   0.665   6.565   0.253  0.1977 -0.1793  0.5136
22940SOL    HW170261   0.650   6.571   0.159 -0.4269 -1.3192  0.5240
22940SOL    HW270262   0.620   6.641   0.289  1.2048  0.7861 -0.1571
22941SOL     OW70263   5.935   6.191   9.688  0.1182  0.7631  0.4649
22941SOL    HW170264   5.858   6.227   9.732  0.4283  1.3296  0.5407
22941SOL    HW270265   5.999   6.178   9.758 -0.5783 -1.6308  0.7698
22942SOL     OW70266   4.232   6.335  11.655 -0.5227  0.0961  0.0343
22942SOL    HW170267   4.165   6.266  11.660  0.1302 -0.4943  2.8630
22942SOL    HW270268   4.186   6.411  11.619 -1.7932 -1.2263 -1.2816
22943SOL     OW70269   5.393   6.608   8.803  0.0415 -0.1991  0.1331
22943SOL    HW170270   5.307   6.566   8.795 -0.9724  1.4070  1.8771
22943SOL    HW270271   5.455   6.543   8.770 -1.8781 -1.1437 -1.8395
22944SOL     OW70272   6.090   6.802  10.071  0.0233  0.3876 -0.6065
22944SOL    HW170273   6.142   6.844  10.003 -0.2645  0.8173 -0.5733
22944SOL    HW270274   6.013   6.768  10.025  0.5424 -0.6342 -0.7246
22945SOL     OW70275   6.257   6.005  10.369  0.4624 -0.0812 -0.7786
22945SOL    HW170276   6.190   5.956  10.417 -1.2155 -0.1206 -2.9830
22945SOL    HW270277   6.223   6.095  10.365  0.9036  0.0733 -1.2516
22946SOL     OW70278   7.197   6.160  12.037  0.0948 -0.0104  0.6564
22946SOL    HW170279   7.243   6.223  12.092 -1.5123  1.0910  0.8165
22946SOL    HW270280   7.200   6.078  12.087 -1.1544  0.9163  2.3555
22947SOL     OW70281   7.043   7.529  10.126  0.2499  0.2510 -0.3729
22947SOL    HW170282   7.028   7.583  10.049 -0.3496  0.0733 -0.3826
22947SOL    HW270283   6.957   7.516  10.165  0.2519 -1.3348 -0.8035
22948SOL     OW70284   6.680   6.287  11.443  0.4993  0.0545  0.1089
22948SOL    HW170285   6.713   6.321  11.360 -0.1912 -0.6664 -0.4809
22948SOL    HW270286   6.669   6.193  11.429 -1.8305  0.2432  0.2093
22949SOL     OW70287   5.206   7.560   9.323  0.1483 -0.5941 -0.4067
22949SOL    HW170288   5.243   7.645   9.347 -0.5443  0.2486 -2.1204
22949SOL    HW270289   5.125   7.555   9.373  0.7545 -0.7867  0.5797
22950SOL     OW70290   6.225   6.609   8.123  0.2741  0.2407 -0.6030
22950SOL    HW170291   6.184   6.534   8.165  0.1823  0.6176 -0.0033
22950SOL    HW270292   6.178   6.685   8.158  1.2231  0.6610 -0.1731
22951SOL     OW70293   7.626   4.183   9.748 -0.0512 -0.0943  0.5526
22951SOL    HW170294   7.644   4.116   9.682  0.5048  0.8174 -0.2484
22951SOL    HW270295   7.639   4.266   9.702 -1.7169  0.5952  1.2463
22952SOL     OW70296   5.331   7.008  10.212 -0.1548 -0.2289  0.2743
22952SOL    HW170297   5.251   6.975  10.252 -0.0959 -0.2993  0.3365
22952SOL    HW270298   5.316   7.000  10.118 -1.4893  2.7494  0.1503
22953SOL     OW70299   6.838   6.751   0.490 -0.0412 -0.1532 -0.4022
22953SOL    HW170300   6.781   6.676   0.475  2.8509 -2.1519 -2.4468
22953SOL    HW270301   6.852   6.788   0.403 -1.6491  3.1260  0.5808
22954SOL     OW70302   6.440   7.708  12.289 -0.4673  0.3577 -0.4998
22954SOL    HW170303   6.515   7.765  12.307  1.2571 -1.2020 -2.2821
22954SOL    HW270304   6.454   7.677  12.200 -3.8345  0.7972 -1.3175
22955SOL     OW70305   0.039   7.890  11.366  0.3629  0.7587 -0.4723
22955SOL    HW170306  -0.001   7.883  11.453  0.8778  1.3187 -0.1856
22955SOL    HW270307   0.117   7.944  11.380 -0.1371  1.7791 -1.4722
22956SOL     OW70308   5.735   5.802  10.858 -0.5502  0.0122  0.0815
22956SOL    HW170309   5.691   5.824  10.940 -0.2062 -1.3646  0.6622
22956SOL    HW270310   5.678   5.736  10.818 -0.0881 -0.2246 -0.1854
22957SOL     OW70311   6.704   5.569  11.116 -0.7348 -0.4191  0.1910
22957SOL    HW170312   6.718   5.662  11.135  1.0237 -0.9819  1.9858
22957SOL    HW270313   6.655   5.536  11.191 -1.5011 -0.9447 -0.5155
22958SOL     OW70314   5.001   6.143  10.432  0.2668  0.5425 -0.5308
22958SOL    HW170315   5.080   6.101  10.467  0.1575 -1.0176 -2.0206
22958SOL    HW270316   5.034   6.215  10.379  0.5496  1.3298  0.6767
22959SOL     OW70317   5.967   6.913  10.693 -0.2419  0.1216 -0.2025
22959SOL    HW170318   6.051   6.878  10.664 -0.9342 -0.9902 -0.9513
22959SOL    HW270319   5.976   6.924  10.787  0.1328 -1.8313  0.0316
22960SOL     OW70320   5.693   6.193  10.336 -0.5587  0.3396 -0.6284
22960SOL    HW170321   5.722   6.275  10.376 -0.4944  1.0310 -2.0297
22960SOL    HW270322   5.620   6.163  10.391  0.2570  0.6386  0.6449
22961SOL     OW70323   5.788   6.146  11.542 -0.6634  0.4164 -0.3578
22961SOL    HW170324   5.762   6.140  11.634  0.2610 -0.6782 -0.1475
22961SOL    HW270325   5.707   6.132  11.494 -1.1114  0.7451  0.2773
22962SOL     OW70326   7.051   5.508   9.745  0.3381 -0.3566 -0.0308
22962SOL    HW170327   7.017   5.457   9.819  0.3225 -1.3012 -0.6793
22962SOL    HW270328   7.015   5.466   9.667 -0.6096  1.3303 -0.5676
22963SOL     OW70329   6.353   0.489   0.534 -0.7773 -0.0672 -0.2815
22963SOL    HW170330   6.405   0.569   0.528 -1.2356  0.1268 -2.6566
22963SOL    HW270331   6.323   0.487   0.625  2.3927  0.3870  0.9239
22964SOL     OW70332   4.775   6.913   8.960  0.6964 -0.0058  0.0042
22964SOL    HW170333   4.812   6.889   9.045 -0.5480  0.4874  0.7168
22964SOL    HW270334   4.770   7.008   8.962 -0.3632 -0.0462 -0.1632
22965SOL     OW70335   4.448   5.417  11.831 -0.0116 -0.2058 -0.2332
22965SOL    HW170336   4.541   5.416  11.853 -0.5395  0.0391  2.2471
22965SOL    HW270337   4.419   5.506  11.855 -1.1162 -0.6594  0.1671
22966SOL     OW70338   7.456   6.169   7.915  0.3377 -0.4260 -0.0037
22966SOL    HW170339   7.428   6.243   7.969  0.7964  0.4391 -0.9162
22966SOL    HW270340   7.551   6.165   7.927  0.9750  1.8232 -3.1024
22967SOL     OW70341   7.323   6.457  10.372  0.0197 -0.6580  0.0581
22967SOL    HW170342   7.334   6.392  10.303 -1.0147 -2.2470  1.3005
22967SOL    HW270343   7.411   6.489  10.391  0.5387 -1.6455 -0.6476
22968SOL     OW70344   6.729   7.263   9.810 -0.4652 -0.0550  1.1688
22968SOL    HW170345   6.717   7.219   9.725 -1.5945  1.3359  0.5571
22968SOL    HW270346   6.824   7.270   9.819 -0.3106  0.9666 -0.6615
22969SOL     OW70347   7.826   7.689   8.844 -0.2955  0.3132  0.2968
22969SOL    HW170348   7.760   7.620   8.843 -0.0782  0.0901 -0.9168
22969SOL    HW270349   7.865   7.685   8.757  0.6822  1.0564  0.6856
22970SOL     OW70350   5.506   0.834   8.866 -0.0688  0.1738 -0.1194
22970SOL    HW170351   5.513   0.741   8.843 -0.9236 -0.4948  1.9981
22970SOL    HW270352   5.466   0.875   8.790  0.2263 -1.2157 -1.0593
22971SOL     OW70353   7.324   7.093   9.051 -0.8709 -0.1695  0.2748
22971SOL    HW170354   7.253   7.084   9.114  0.3500  0.9972  1.9204
22971SOL    HW270355   7.318   7.183   9.020 -0.3852 -0.1962  0.0955
22972SOL     OW70356   5.511   5.457  11.191  0.9575 -0.3655  0.1136
22972SOL    HW170357   5.488   5.486  11.279 -0.2566  0.3935 -0.4301
22972SOL    HW270358   5.585   5.513  11.166  0.9893 -0.2480  0.4620
22973SOL     OW70359   0.131   6.834  11.044 -0.5284  0.2184 -0.2060
22973SOL    HW170360   0.099   6.853  10.955 -2.2847 -0.7316  0.1681
22973SOL    HW270361   0.055   6.850  11.100  0.0913 -0.6809  0.9330
22974SOL     OW70362   6.021   7.444  10.645  0.1261  0.1472  0.4181
22974SOL    HW170363   5.932   7.445  10.609  0.0790 -0.2637  0.5195
22974SOL    HW270364   6.019   7.376  10.712  0.2133  0.9034  1.2110
22975SOL     OW70365   7.377   5.703  11.337 -0.0812 -0.1252  0.0345
22975SOL    HW170366   7.428   5.711  11.257  0.0892 -0.4803  0.1020
22975SOL    HW270367   7.290   5.736  11.314  0.2037  0.5683 -0.0538
22976SOL     OW70368   5.979   5.609  10.391 -0.0865 -0.4233  0.6406
22976SOL    HW170369   6.010   5.579  10.306 -0.8337  2.8850 -0.9735
22976SOL    HW270370   5.887   5.581  10.395 -0.4139  0.4373 -0.2753
22977SOL     OW70371   6.360   5.427  11.525  0.5252  0.1823  0.2160
22977SOL    HW170372   6.321   5.514  11.534  0.7236  0.1861  1.1039
22977SOL    HW270373   6.318   5.375  11.594 -2.3705 -1.4756 -2.5231
22978SOL     OW70374   6.409   5.776  10.193 -0.0164  0.0425  0.3935
22978SOL    HW170375   6.383   5.688  10.165  2.9118 -0.4802 -1.1427
22978SOL    HW270376   6.461   5.761  10.272  1.1549  0.2596 -0.3162
22979SOL     OW70377   5.134   6.292  10.798  0.0574 -0.0608 -0.2512
22979SOL    HW170378   5.196   6.289  10.725  0.3125  0.7244 -0.0712
22979SOL    HW270379   5.100   6.202  10.804 -0.2711 -0.0451 -1.5911
22980SOL     OW70380   0.059   5.328  11.393 -0.6280 -0.1068 -0.3214
22980SOL    HW170381   0.072   5.310  11.486 -2.2144  0.4914  0.0653
22980SOL    HW270382  -0.013   5.392  11.391 -0.1538  0.4412 -1.9283
22981SOL     OW70383   5.722   6.280   9.830  0.1335  0.1407  0.0123
22981SOL    HW170384   5.656   6.216   9.804  0.2083  0.4261 -0.9028
22981SOL    HW270385   5.674   6.344   9.883  0.0495 -0.6217  0.8957
22982SOL     OW70386   7.095   6.541  10.196  0.0475  0.0622  0.2065
22982SOL    HW170387   7.062   6.454  10.172 -0.0879  0.0535  0.4249
22982SOL    HW270388   7.160   6.524  10.264  0.7998  0.0441 -0.4884
22983SOL     OW70389   5.109   5.976   8.961 -0.4404  0.0228 -0.0303
22983SOL    HW170390   5.150   6.062   8.974 -0.6900  0.3461 -1.2931
22983SOL    HW270391   5.163   5.933   8.895 -1.2854 -0.1165 -0.6445
22984SOL     OW70392   7.049   6.008   9.318  0.0867  0.4798 -0.0136
22984SOL    HW170393   7.118   6.001   9.383  0.5091 -0.4033 -0.5365
22984SOL    HW270394   7.092   5.987   9.235 -1.3789 -3.3238 -0.0248
22985SOL     OW70395   5.949   7.347   9.582  0.2393 -0.3495 -0.4261
22985SOL    HW170396   5.875   7.294   9.611 -0.2070  0.4255 -0.1000
22985SOL    HW270397   6.023   7.314   9.632 -0.3526  0.3856  0.9941
22986SOL     OW70398   5.153   6.173  11.979 -0.4986 -0.6508  0.5226
22986SOL    HW170399   5.213   6.101  11.997 -0.7521 -0.9091  0.3525
22986SOL    HW270400   5.191   6.218  11.904 -0.2240 -0.4719  0.7668
22987SOL     OW70401   7.787   3.304   9.642  0.0246  0.5992  0.3870
22987SOL    HW170402   7.832   3.236   9.592 -1.1049  0.8295 -1.0046
22987SOL    HW270403   7.850   3.375   9.649  0.3168  0.4279 -0.4377
22988SOL     OW70404   6.106   5.260  10.372  0.0293 -0.5364  0.1405
22988SOL    HW170405   6.065   5.216  10.446  1.1337 -1.5411  0.1791
22988SOL    HW270406   6.198   5.237  10.377  0.2795  0.0712 -1.0647
22989SOL     OW70407   5.604   6.014   9.837 -0.6488  0.5491 -0.2255
22989SOL    HW170408   5.587   5.948   9.769 -1.9757  0.4850  0.1528
22989SOL    HW270409   5.518   6.040   9.867 -0.0899  1.3266  0.7389
22990SOL     OW70410   5.771   6.355  11.355 -0.4428  0.3264  0.4430
22990SOL    HW170411   5.807   6.269  11.376  2.0258  1.4499  1.1799
22990SOL    HW270412   5.781   6.406  11.436 -1.2090  1.5296 -0.1830
22991SOL     OW70413   7.079   6.730   8.398  0.4516 -0.2696 -0.2920
22991SOL    HW170414   7.126   6.682   8.330  0.4920 -0.4814 -0.1158
22991SOL    HW270415   7.001   6.677   8.415  0.4986 -0.2755 -0.0925
22992SOL     OW70416   7.454   7.253   9.294 -0.4302  0.3166 -0.3955
22992SOL    HW170417   7.411   7.339   9.302 -3.9666 -0.9463 -2.9258
22992SOL    HW270418   7.402   7.195   9.350  2.1815 -0.2492  1.6324
22993SOL     OW70419   4.294   6.554  11.109 -0.1880 -0.1618  0.3422
22993SOL    HW170420   4.348   6.537  11.032 -0.0726  1.7745 -0.0514
22993SOL    HW270421   4.356   6.586  11.175 -0.2998 -1.6954  1.2530
22994SOL     OW70422   7.287   6.843   9.933  0.2452 -0.0864  0.1489
22994SOL    HW170423   7.205   6.816   9.892  0.0528  0.7121 -0.0029
22994SOL    HW270424   7.340   6.763   9.933  0.2789 -0.1046 -1.7020
22995SOL     OW70425   6.397   6.919   7.872 -0.0713 -0.3134 -0.5280
22995SOL    HW170426   6.429   6.838   7.911  0.0090  0.7777  1.8851
22995SOL    HW270427   6.475   6.974   7.863 -0.3243  0.0074 -0.8245
22996SOL     OW70428   6.677   6.861   9.091  0.2301 -0.3517  0.8151
22996SOL    HW170429   6.648   6.940   9.138 -1.1304 -0.6808  0.5663
22996SOL    HW270430   6.711   6.894   9.008 -0.4515 -0.0285  0.6588
22997SOL     OW70431   5.742   6.487   9.016 -0.0484  0.1699 -0.1601
22997SOL    HW170432   5.757   6.521   8.927  2.1682  0.4060  0.2539
22997SOL    HW270433   5.820   6.436   9.035 -1.0459 -0.8959  1.2232
22998SOL     OW70434   4.694   5.857   9.132 -0.3436  0.0449  0.0767
22998SOL    HW170435   4.754   5.884   9.201  3.0938 -0.1369 -2.5337
22998SOL    HW270436   4.608   5.859   9.172  1.3286  0.5356  4.1183
22999SOL     OW70437   4.842   7.192  11.003  0.0618  0.2621  0.2453
22999SOL    HW170438   4.927   7.226  11.031  0.2279 -0.2588  0.3903
22999SOL    HW270439   4.861   7.103  10.972 -0.5335 -0.1339  0.9533
23000SOL     OW70440   4.847   4.706  11.639 -0.3935 -0.2576 -0.3336
23000SOL    HW170441   4.880   4.764  11.708 -1.5841 -0.1786  0.1931
23000SOL    HW270442   4.758   4.737  11.623 -0.2073 -0.4173 -1.7733
23001SOL     OW70443   6.142   6.482   8.704  0.6437  0.0148  0.5543
23001SOL    HW170444   6.135   6.536   8.626  4.3583  0.3200  0.2863
23001SOL    HW270445   6.152   6.393   8.671  3.1078  0.2418  0.5370
23002SOL     OW70446   6.321   6.364  10.233 -0.6207 -0.5126 -0.0662
23002SOL    HW170447   6.296   6.420  10.159 -0.1516 -1.6346 -1.1101
23002SOL    HW270448   6.237   6.335  10.270 -0.8650  0.6545  0.3402
23003SOL     OW70449   5.557   0.425   9.855  0.1036  0.0938 -0.1424
23003SOL    HW170450   5.653   0.426   9.848  0.3392 -1.7171  1.9298
23003SOL    HW270451   5.527   0.429   9.764  2.1394  0.4331 -0.8625
23004SOL     OW70452   5.308   6.310  11.289  0.2774  0.9449  0.1618
23004SOL    HW170453   5.347   6.328  11.203  1.5697  1.1888  0.7769
23004SOL    HW270454   5.251   6.385  11.305 -1.6417 -0.0804 -1.3634
23005SOL     OW70455   6.066   0.462   9.515  0.1213  0.1907  0.3824
23005SOL    HW170456   6.094   0.525   9.449 -0.0831  0.2864  0.3852
23005SOL    HW270457   6.035   0.516   9.588 -1.4556  0.1215 -0.1979
23006SOL     OW70458   5.379   4.533   9.387  0.1659 -0.0347  0.4357
23006SOL    HW170459   5.415   4.494   9.466 -1.1343 -1.6755  0.2838
23006SOL    HW270460   5.287   4.548   9.407  0.1987  1.1137 -0.2068
23007SOL     OW70461   4.789   6.948  10.085 -0.0067 -0.4463 -0.2344
23007SOL    HW170462   4.796   6.917  10.175 -0.1224  0.4238  0.0783
23007SOL    HW270463   4.876   6.933  10.048  0.3552  0.1765  0.3465
23008SOL     OW70464   0.601   7.745   9.724 -0.1987 -0.0695 -0.0662
23008SOL    HW170465   0.658   7.690   9.670  1.3010 -1.8147  3.0540
23008SOL    HW270466   0.527   7.688   9.746 -0.2336  0.2283  0.6027
23009SOL     OW70467   1.254   6.987   7.948  0.0307 -0.0558  0.2625
23009SOL    HW170468   1.336   7.017   7.907 -0.6991  0.7780 -0.6658
23009SOL    HW270469   1.208   6.941   7.877 -1.1310  1.1608  0.1883
23010SOL     OW70470   6.197   6.850  11.657 -0.0527 -0.5109  0.4375
23010SOL    HW170471   6.263   6.837  11.589  0.0446 -0.8641  0.6011
23010SOL    HW270472   6.245   6.849  11.739 -0.3931 -2.0183  0.6562
23011SOL     OW70473   7.078   6.066  12.480 -0.1633 -0.6117 -0.4858
23011SOL    HW170474   7.019   6.071  12.555  1.0235 -1.1000  0.5008
23011SOL    HW270475   7.085   6.157  12.450  1.0890 -0.0341  1.3977
23012SOL     OW70476   6.481   7.042   9.868  0.7741 -0.0323  0.3004
23012SOL    HW170477   6.561   6.991   9.882  0.5705 -0.9937 -1.7742
23012SOL    HW270478   6.506   7.107   9.803  0.1531  0.4306  0.5181
23013SOL     OW70479   7.322   7.579  11.334 -0.5265  0.0625 -0.0027
23013SOL    HW170480   7.384   7.571  11.405 -2.0296 -0.2028  1.3456
23013SOL    HW270481   7.363   7.640  11.272  2.0727 -1.9025 -0.3698
23014SOL     OW70482   6.311   5.846  10.618 -0.3313 -0.1942 -0.4737
23014SOL    HW170483   6.290   5.785  10.689  0.1512  0.3464  0.1451
23014SOL    HW270484   6.230   5.895  10.604 -0.3325 -0.0774 -0.0681
23015SOL     OW70485   0.240   7.475  10.505 -0.1103  0.5908  0.3441
23015SOL    HW170486   0.197   7.530  10.439 -0.6032  0.3992  0.5106
23015SOL    HW270487   0.175   7.462  10.573  0.1743  0.2144  0.5501
23016SOL     OW70488   3.999   7.258  10.366  0.0377 -0.3012  0.2923
23016SOL    HW170489   3.988   7.237  10.459  1.9014  1.5840  0.9988
23016SOL    HW270490   4.057   7.190  10.333  1.4121  0.4153  1.1575
23017SOL     OW70491   5.611   6.471  10.228 -0.2798 -0.3767  0.5055
23017SOL    HW170492   5.585   6.472  10.136 -0.7354 -1.4469  0.6088
23017SOL    HW270493   5.570   6.392  10.264 -2.1721  1.2762  2.2260
23018SOL     OW70494   7.020   7.485   0.229 -0.3014 -0.3588  0.3428
23018SOL    HW170495   6.990   7.466   0.317  0.2211 -1.7008  0.2454
23018SOL    HW270496   6.958   7.551   0.197 -0.6098  0.0037  1.6270
23019SOL     OW70497   5.294   7.175   8.121 -0.0975 -0.3318 -0.4267
23019SOL    HW170498   5.208   7.142   8.095 -1.0596  1.8439 -0.2336
23019SOL    HW270499   5.315   7.242   8.055  1.0026 -0.1757  0.0602
23020SOL     OW70500   7.628   0.596   7.592  0.5401 -0.2879 -0.6606
23020SOL    HW170501   7.608   0.611   7.500 -0.8076  1.0881 -0.1977
23020SOL    HW270502   7.563   0.650   7.639  1.0020 -1.1923  1.0829
23021SOL     OW70503   6.950   6.329  10.601 -0.0672  0.7231  0.5941
23021SOL    HW170504   6.972   6.236  10.608 -1.3468  0.2687 -0.8201
23021SOL    HW270505   6.854   6.331  10.594 -0.0611  2.1433  0.5104
23022SOL     OW70506   6.074   7.538   9.786 -0.0293 -0.5571  0.0555
23022SOL    HW170507   6.117   7.454   9.767  1.9115  0.2032  0.8439
23022SOL    HW270508   6.091   7.591   9.709  0.8681 -0.1199  0.5351
23023SOL     OW70509   7.210   7.478   8.744  0.2560 -0.4497  0.0267
23023SOL    HW170510   7.275   7.448   8.808  0.5749 -0.5591 -0.3423
23023SOL    HW270511   7.251   7.462   8.659 -0.4302 -0.9192 -0.2244
23024SOL     OW70512   5.629   6.845  10.393  0.2044 -0.3811  0.3491
23024SOL    HW170513   5.612   6.921  10.449 -0.1104 -1.3318  1.6053
23024SOL    HW270514   5.671   6.881  10.316  0.0890  1.0667  0.9241
23025SOL     OW70515   5.889   6.257   8.656 -0.1326  0.5225  0.2180
23025SOL    HW170516   5.886   6.342   8.613  0.4473  0.9668  1.0427
23025SOL    HW270517   5.981   6.232   8.655 -0.4451 -0.7150 -1.1724
23026SOL     OW70518   6.280   6.766   7.448  0.0156  0.0575 -0.6318
23026SOL    HW170519   6.289   6.822   7.371 -2.6213 -0.8052 -1.6802
23026SOL    HW270520   6.292   6.826   7.522 -1.3800  1.7667 -1.7070
23027SOL     OW70521   4.588   7.638  11.760 -0.2958 -0.6728  0.0805
23027SOL    HW170522   4.553   7.557  11.796 -0.8582 -1.1821 -1.5341
23027SOL    HW270523   4.642   7.610  11.686  0.3718  0.3635  0.1505
23028SOL     OW70524   6.825   6.712  11.270 -0.4936  0.2994 -0.4792
23028SOL    HW170525   6.786   6.728  11.184  0.5167 -0.4430 -1.0943
23028SOL    HW270526   6.820   6.797  11.314 -0.9064  0.7237 -1.3162
23029SOL     OW70527   7.561   6.331   6.196  0.5774 -0.7522 -0.3630
23029SOL    HW170528   7.612   6.409   6.220  0.9631 -0.5747 -1.6589
23029SOL    HW270529   7.502   6.317   6.269 -0.5089  1.6334 -0.6973
23030SOL     OW70530   5.197   4.698  10.282 -0.0850  0.6567  0.0683
23030SOL    HW170531   5.215   4.784  10.243  1.5174  0.2512 -0.1817
23030SOL    HW270532   5.253   4.695  10.360  0.1532 -0.2870 -0.1266
23031SOL     OW70533   7.593   7.484  10.221 -0.0637 -0.8455  0.3208
23031SOL    HW170534   7.541   7.429  10.161  0.9912 -0.2290 -1.2405
23031SOL    HW270535   7.622   7.424  10.289 -0.2902 -1.8763 -0.4583
23032SOL     OW70536   5.834   5.701  10.086 -0.2976 -0.1764 -0.1080
23032SOL    HW170537   5.906   5.662  10.136 -0.4224  0.2792  0.4405
23032SOL    HW270538   5.773   5.733  10.153 -0.0487  1.2389 -0.5216
23033SOL     OW70539   5.003   7.144  11.407 -0.5594 -0.0033 -0.0578
23033SOL    HW170540   5.046   7.082  11.465 -0.0967  1.0917  0.8074
23033SOL    HW270541   4.910   7.122  11.414 -0.5944  0.4864  1.6193
23034SOL     OW70542   4.846   5.328   9.168 -0.1029 -0.1200  0.4004
23034SOL    HW170543   4.890   5.366   9.244  1.1235 -1.1580  0.2354
23034SOL    HW270544   4.873   5.384   9.095  0.5747 -0.4733  0.3746
23035SOL     OW70545   5.488   4.634   9.179  0.1712 -0.3374 -0.6192
23035SOL    HW170546   5.475   4.582   9.100  0.7189 -0.0740 -0.8936
23035SOL    HW270547   5.434   4.592   9.246  0.7493 -1.3752 -0.7755
23036SOL     OW70548   7.210   5.830  10.494 -0.1674  0.1011 -0.3175
23036SOL    HW170549   7.250   5.749  10.462  0.6117 -0.6737  2.3287
23036SOL    HW270550   7.255   5.899  10.445  0.7728 -0.9668 -1.0329
23037SOL     OW70551   5.411   5.112   7.551 -0.0294 -0.3666  0.1063
23037SOL    HW170552   5.401   5.039   7.611 -0.9624  2.0578  3.1606
23037SOL    HW270553   5.363   5.086   7.473 -2.6106 -2.0073  2.0916
23038SOL     OW70554   0.596   0.198   9.257 -0.3583 -0.6997  0.2142
23038SOL    HW170555   0.548   0.269   9.213 -0.4174 -1.3655 -0.8357
23038SOL    HW270556   0.554   0.118   9.225 -0.4369 -1.2151  1.5505
23039SOL     OW70557   5.788   7.132   9.583 -0.3136  0.3676 -0.2585
23039SOL    HW170558   5.696   7.157   9.570 -0.6827 -0.7553  0.0857
23039SOL    HW270559   5.808   7.075   9.509 -0.4844 -0.9080  0.6460
23040SOL     OW70560   4.957   7.722  11.590 -0.4103  0.4969  0.0289
23040SOL    HW170561   4.977   7.745  11.681 -1.7649  1.5666  0.0847
23040SOL    HW270562   5.035   7.750  11.541 -0.9599  3.0072  0.4480
23041SOL     OW70563   6.572   7.812  11.275  0.1030  0.4547 -0.1766
23041SOL    HW170564   6.497   7.783  11.327  0.7212 -0.2691  0.3198
23041SOL    HW270565   6.631   7.853  11.338  0.2777  0.7297 -0.5113
23042SOL     OW70566   6.321   0.470  12.196  0.4167 -0.1254  0.2108
23042SOL    HW170567   6.369   0.424  12.128  1.4490 -1.2215  1.6057
23042SOL    HW270568   6.287   0.549  12.153  0.6773 -0.9693 -1.6284
23043SOL     OW70569   7.788   7.236  12.206 -0.2829  0.3504 -0.0707
23043SOL    HW170570   7.881   7.214  12.217 -0.1878  1.1013  0.7424
23043SOL    HW270571   7.787   7.312  12.148 -0.4223  0.0595 -0.4530
23044SOL     OW70572   6.191   5.102   9.978  0.2586  0.7531  0.0436
23044SOL    HW170573   6.262   5.078  10.038 -0.3684  0.1765  0.5655
23044SOL    HW270574   6.139   5.165  10.028  0.2411  0.9591 -0.2358
23045SOL     OW70575   4.300   5.761  10.291 -0.3541  0.2835 -0.2808
23045SOL    HW170576   4.309   5.670  10.319 -1.1135  0.1903 -0.3247
23045SOL    HW270577   4.219   5.763  10.239 -0.4023  0.9998 -0.1925
23046SOL     OW70578   5.535   6.325  10.764  0.0780 -0.3208 -0.6464
23046SOL    HW170579   5.518   6.384  10.837  2.6691 -0.6184  0.3081
23046SOL    HW270580   5.515   6.238  10.799 -0.1651 -0.3364 -0.8202
23047SOL     OW70581   5.426   4.441   8.974  0.3271 -0.1869 -0.2294
23047SOL    HW170582   5.449   4.470   8.885 -0.9015 -0.5083 -0.6728
23047SOL    HW270583   5.471   4.358   8.985 -0.9162 -1.0251 -1.2457
23048SOL     OW70584   5.159   6.535   7.781  0.2828 -0.0248  0.2980
23048SOL    HW170585   5.218   6.480   7.834  0.0489 -0.9158 -0.3512
23048SOL    HW270586   5.077   6.485   7.777 -0.2589  0.8323  0.5154
23049SOL     OW70587   6.320   7.827   8.981 -0.7073  0.5994 -0.3653
23049SOL    HW170588   6.260   7.896   8.954 -1.6954  0.2349  0.7990
23049SOL    HW270589   6.303   7.816   9.075  0.1433 -0.5343 -0.3220
23050SOL     OW70590   6.105   3.812  10.213 -0.1364 -0.0367  0.0912
23050SOL    HW170591   6.164   3.794  10.286 -1.6247 -0.6398  1.1692
23050SOL    HW270592   6.047   3.881  10.245  0.1595  0.8046 -1.0880
23051SOL     OW70593   0.952   0.031   9.687  0.6483  0.2962 -0.0554
23051SOL    HW170594   0.949  -0.020   9.768  1.4654 -0.7237 -0.6459
23051SOL    HW270595   0.918  -0.028   9.620  0.9497  0.7706 -0.6353
23052SOL     OW70596   3.986   1.314  11.246 -0.7485 -0.0713  0.2385
23052SOL    HW170597   4.004   1.223  11.271 -1.8013 -0.4717 -0.4141
23052SOL    HW270598   3.891   1.319  11.237 -0.6865  1.0323  0.0188
23053SOL     OW70599   6.473   7.753  10.515  0.0941  0.0573  0.4344
23053SOL    HW170600   6.504   7.663  10.521 -0.7053 -0.1605  1.4048
23053SOL    HW270601   6.430   7.770  10.599 -1.2093  0.7985 -0.3434
23054SOL     OW70602   4.693   6.310  12.286 -0.5412  0.1122 -0.4439
23054SOL    HW170603   4.775   6.307  12.237 -0.5846 -1.0504 -0.4601
23054SOL    HW270604   4.633   6.359  12.230 -0.8607 -1.9442 -2.0058
23055SOL     OW70605   6.518   5.824  10.435 -0.1175  0.8591  0.6470
23055SOL    HW170606   6.578   5.773  10.490 -0.5398 -0.4749 -0.1008
23055SOL    HW270607   6.440   5.836  10.489 -0.2476  0.1891  0.6158
23056SOL     OW70608   3.552   7.151  11.684 -0.2346  0.1502  0.0876
23056SOL    HW170609   3.492   7.109  11.746 -1.1992 -0.3440 -1.1395
23056SOL    HW270610   3.597   7.218  11.736 -2.7014  1.3556  0.8043
23057SOL     OW70611   6.435   6.781   8.133 -0.0093  0.1564 -0.1861
23057SOL    HW170612   6.506   6.718   8.117  0.5519  0.6882  0.1446
23057SOL    HW270613   6.355   6.729   8.125  0.2652 -0.0190 -2.9507
23058SOL     OW70614   5.703   6.600   9.769  0.1183 -0.0855  0.3898
23058SOL    HW170615   5.702   6.584   9.674  1.2972  1.3988  0.0961
23058SOL    HW270616   5.611   6.601   9.794 -0.2949  1.2084 -1.0630
23059SOL     OW70617   5.916   7.277   9.211  0.3354  0.5669 -0.1448
23059SOL    HW170618   5.910   7.196   9.160  0.9755 -0.4497  1.3103
23059SOL    HW270619   5.971   7.254   9.286 -0.9430  1.8365  1.2598
23060SOL     OW70620   5.758   6.134  11.820 -0.0375 -0.0179 -0.4125
23060SOL    HW170621   5.681   6.087  11.787  0.6728 -1.3961 -0.1296
23060SOL    HW270622   5.770   6.101  11.909  0.3734  0.8493 -0.1365
23061SOL     OW70623   6.487   6.862   8.462  0.4134 -0.0800  0.5776
23061SOL    HW170624   6.530   6.795   8.409  0.4119  0.3859 -0.0309
23061SOL    HW270625   6.544   6.939   8.453  0.5130 -0.0434  1.4146
23062SOL     OW70626   4.771   0.179  11.224  0.6404  0.0212  0.0924
23062SOL    HW170627   4.676   0.173  11.214  0.9274 -0.7028 -3.3079
23062SOL    HW270628   4.798   0.094  11.257  0.0717  0.6829  2.4547
23063SOL     OW70629   7.474   6.957   8.097 -0.2554  0.3810 -0.0216
23063SOL    HW170630   7.540   7.025   8.107 -1.9147  2.1155 -0.3638
23063SOL    HW270631   7.399   6.987   8.150 -1.1640 -0.9854 -0.4682
23064SOL     OW70632   7.681   6.690  12.156 -0.6850 -0.6560  0.1645
23064SOL    HW170633   7.734   6.730  12.086 -1.7748  0.2475 -0.1838
23064SOL    HW270634   7.726   6.609  12.177  0.3147 -0.3711 -0.7734
23065SOL     OW70635   0.312   6.824  11.731  0.3918 -0.5458 -0.1454
23065SOL    HW170636   0.349   6.912  11.717  0.4105 -0.3776  0.9170
23065SOL    HW270637   0.332   6.778  11.650  2.4481 -0.2764  0.1432
23066SOL     OW70638   7.129   6.669   9.311  0.4713 -0.0835  0.3374
23066SOL    HW170639   7.061   6.734   9.330  0.0639 -0.4937  0.3088
23066SOL    HW270640   7.155   6.636   9.397 -1.2599 -1.8270  0.2914
23067SOL     OW70641   5.602   7.394  10.039 -0.7350 -0.4475  0.5491
23067SOL    HW170642   5.686   7.423  10.074 -0.4707 -1.7966  1.0957
23067SOL    HW270643   5.584   7.312  10.084 -2.1162 -0.4351  0.0749
23068SOL     OW70644   6.966   0.240  10.391  0.1442 -0.0770  0.7146
23068SOL    HW170645   6.982   0.277  10.478 -1.8119 -0.4804  1.2911
23068SOL    HW270646   6.969   0.146  10.404 -0.8679 -0.1503  0.5321
23069SOL     OW70647   3.540   6.631  12.352 -0.0593  0.4436 -0.2542
23069SOL    HW170648   3.525   6.622  12.447  0.7713 -0.2448 -0.1810
23069SOL    HW270649   3.462   6.591  12.313 -0.3587  0.6349  0.1311
23070SOL     OW70650   4.312   6.388   0.142 -0.4852 -0.3506 -0.0902
23070SOL    HW170651   4.270   6.357   0.223 -1.0480 -1.0937 -0.6597
23070SOL    HW270652   4.263   6.346   0.072 -1.7117  2.3027 -0.9499
23071SOL     OW70653   4.842   6.177   0.481  0.6493  0.7174  0.0697
23071SOL    HW170654   4.908   6.137   0.423  0.6265  0.2346  0.3669
23071SOL    HW270655   4.889   6.246   0.526  1.0679  0.1262  0.5623
23072SOL     OW70656   5.302   7.510  10.460  0.1453 -0.0513 -0.7244
23072SOL    HW170657   5.311   7.437  10.521  1.0861 -0.2818 -1.1284
23072SOL    HW270658   5.391   7.540  10.445 -0.1561  0.5828 -1.2891
23073SOL     OW70659   6.548   6.043  11.516  0.2877  0.4340  0.1824
23073SOL    HW170660   6.478   6.100  11.547  0.9259  2.2511 -1.5232
23073SOL    HW270661   6.611   6.040  11.588 -0.3997  0.7370  0.8150
23074SOL     OW70662   4.270   6.685  12.372  0.2160 -0.4738  0.0948
23074SOL    HW170663   4.285   6.623  12.300 -1.4975  1.5899 -2.2258
23074SOL    HW270664   4.175   6.699  12.371  0.3945  1.1093  1.4365
23075SOL     OW70665   3.841   7.153   1.017 -0.2198 -0.0744  0.3772
23075SOL    HW170666   3.802   7.200   0.944 -0.3718  0.6803  0.9390
23075SOL    HW270667   3.816   7.203   1.095  0.9036 -0.2229  0.8522
23076SOL     OW70668   6.955   7.155   0.210  0.5857  0.2325 -0.1818
23076SOL    HW170669   6.901   7.160   0.289  1.9901  1.0743  0.7789
23076SOL    HW270670   6.919   7.221   0.151  1.2718  1.6811  0.9489
23077SOL     OW70671   7.263   5.503  12.396  0.1286  0.6963 -0.3701
23077SOL    HW170672   7.299   5.420  12.364 -0.9106 -0.3538  1.0245
23077SOL    HW270673   7.292   5.568  12.332  0.7999 -0.7648 -1.6295
23078SOL     OW70674   4.854   0.719  10.977 -0.2069 -1.2588  0.1482
23078SOL    HW170675   4.947   0.725  10.957  0.1063 -2.1201  1.2271
23078SOL    HW270676   4.835   0.799  11.026 -0.2135 -0.7415 -0.6791
23079SOL     OW70677   4.685   6.230   0.745 -0.2169 -0.5475 -0.3334
23079SOL    HW170678   4.605   6.184   0.718 -0.0382 -0.8524 -0.3484
23079SOL    HW270679   4.734   6.243   0.664  0.2852 -1.3997 -0.1864
23080SOL     OW70680   5.791   7.295  11.809  0.4779  0.8799  0.1272
23080SOL    HW170681   5.871   7.347  11.820 -0.0366  1.4158  1.5494
23080SOL    HW270682   5.720   7.356  11.830 -0.4715  0.9368 -2.8185
23081SOL     OW70683   7.940   0.319  10.057 -0.0498 -0.0524 -0.2595
23081SOL    HW170684   7.915   0.247  10.000 -0.8462  0.8233 -1.0661
23081SOL    HW270685   7.941   0.282  10.145  0.7672 -1.3238 -0.7828
23082SOL     OW70686   5.696   6.907  12.419 -0.3401 -0.1092 -0.5026
23082SOL    HW170687   5.698   6.941  12.509  2.0955 -1.3639  0.0036
23082SOL    HW270688   5.718   6.814  12.429 -1.8000 -0.6962 -2.2721
23083SOL     OW70689   7.149   6.740  10.755  0.0866  0.4833  0.7184
23083SOL    HW170690   7.193   6.747  10.840 -1.5067 -0.1815  1.6247
23083SOL    HW270691   7.181   6.658  10.718 -2.1664 -1.3360  2.5046
23084SOL     OW70692   4.486   6.414  12.118 -0.1719 -0.3137 -0.0111
23084SOL    HW170693   4.444   6.328  12.123 -0.4617 -0.1397  0.7226
23084SOL    HW270694   4.449   6.455  12.040  1.1771 -1.4709 -1.3318
23085SOL     OW70695   7.181   6.515  11.606  0.0525  0.1107  0.1883
23085SOL    HW170696   7.258   6.460  11.591  0.0263  0.2512 -0.4572
23085SOL    HW270697   7.129   6.465  11.670  0.2335 -0.4169 -0.0724
23086SOL     OW70698   6.347   7.797  11.419 -0.2182 -0.2949  0.0525
23086SOL    HW170699   6.314   7.708  11.409  0.5256 -0.5734 -0.0439
23086SOL    HW270700   6.280   7.842  11.470 -0.5988 -0.9165  0.1143
23087SOL     OW70701   3.686   5.068   0.839  0.0626  0.1441  0.2956
23087SOL    HW170702   3.725   5.012   0.772 -1.3138  0.7733 -1.1047
23087SOL    HW270703   3.667   5.150   0.794 -0.3116  0.8303  1.6430
23088SOL     OW70704   3.878   7.134   0.596 -0.2106  0.3064 -0.7844
23088SOL    HW170705   3.831   7.051   0.600 -2.2130  1.3601 -1.1855
23088SOL    HW270706   3.853   7.179   0.676  1.9059  0.0433  0.0750
23089SOL     OW70707   6.409   4.870  11.418  0.3149  0.5872 -0.3467
23089SOL    HW170708   6.448   4.889  11.333 -0.0370 -2.9568 -1.4377
23089SOL    HW270709   6.414   4.775  11.427  0.2911  0.7799  3.6196
23090SOL     OW70710   6.268   7.372  10.966 -0.3670  0.2576 -0.1234
23090SOL    HW170711   6.343   7.342  11.017 -0.6354 -0.7858 -0.3147
23090SOL    HW270712   6.301   7.376  10.876 -0.5785 -0.3538 -0.2306
23091SOL     OW70713   7.432   6.949   1.235  0.4650 -0.0423  0.1175
23091SOL    HW170714   7.493   7.011   1.275 -1.0284  0.9284  0.9905
23091SOL    HW270715   7.432   6.972   1.142  1.7328 -0.3525  0.0238
23092SOL     OW70716   0.034   5.365   0.817 -0.2976 -0.2886 -0.5089
23092SOL    HW170717   0.092   5.320   0.879 -0.0436  1.6238  0.7269
23092SOL    HW270718   0.040   5.313   0.737  0.9904 -1.6739  0.4285
23093SOL     OW70719   6.781   6.999  10.797  0.4348  0.4414  0.1587
23093SOL    HW170720   6.687   6.993  10.785  0.3604 -1.3111  1.3084
23093SOL    HW270721   6.792   7.055  10.874  0.4162  1.6541 -0.6919
23094SOL     OW70722   6.061   6.398  10.928 -0.0305 -0.3909 -0.0705
23094SOL    HW170723   6.148   6.438  10.937  0.2996 -0.8764 -0.9286
23094SOL    HW270724   6.012   6.431  11.003  0.6399  0.5459 -0.0147
23095SOL     OW70725   6.209   7.142  11.488 -0.3075 -0.1999  0.1531
23095SOL    HW170726   6.180   7.222  11.531  1.2036 -0.8156  2.5384
23095SOL    HW270727   6.233   7.084  11.560  1.1773 -1.8050 -1.5351
23096SOL     OW70728   5.975   6.492  10.668 -0.6308 -0.5568  0.0676
23096SOL    HW170729   5.997   6.584  10.649 -2.4420 -0.3452 -1.3267
23096SOL    HW270730   6.005   6.478  10.757 -0.3973  1.4342  0.3516
23097SOL     OW70731   5.434   5.507  12.067 -0.1986 -0.1870  0.1819
23097SOL    HW170732   5.455   5.477  12.156  0.7466 -0.0244  0.0224
23097SOL    HW270733   5.492   5.583  12.053 -1.2002  0.5390 -0.1279
23098SOL     OW70734   5.297   3.840  11.682 -0.3954  0.0294  0.4775
23098SOL    HW170735   5.352   3.919  11.685  1.6134 -1.1848 -1.5825
23098SOL    HW270736   5.351   3.771  11.719 -1.1871 -0.9070 -0.0671
23099SOL     OW70737   4.816   5.258  12.442  0.0059  0.4538 -0.3271
23099SOL    HW170738   4.890   5.214  12.401  0.1426 -0.4588  0.8591
23099SOL    HW270739   4.848   5.284  12.528 -0.7005  1.0965 -0.2459
23100SOL     OW70740   6.504   3.761   0.732  0.3151  0.1296 -0.2593
23100SOL    HW170741   6.448   3.743   0.808  0.5633 -2.2825 -0.5647
23100SOL    HW270742   6.447   3.744   0.656  0.2833  1.8014 -0.6358
23101SOL     OW70743   5.958   5.234  11.290  0.4173 -0.1006 -0.0456
23101SOL    HW170744   6.004   5.151  11.302  0.0604 -0.3314 -0.2401
23101SOL    HW270745   5.981   5.262  11.202 -0.6244 -0.7390 -0.5368
23102SOL     OW70746   6.669   6.754   0.013  0.2898 -0.3206  0.9003
23102SOL    HW170747   6.636   6.668   0.039  0.3549 -0.1578  1.5510
23102SOL    HW270748   6.763   6.744   0.006  0.0667 -1.2584 -2.7500
23103SOL     OW70749   5.770   0.034   0.169  0.2493 -0.3951  0.0357
23103SOL    HW170750   5.683   0.027   0.208  1.1191 -0.6444  2.0619
23103SOL    HW270751   5.762   0.105   0.106 -0.4727  2.5798  3.1298
23104SOL     OW70752   4.735   7.268  11.615  0.0024 -0.0097 -0.1149
23104SOL    HW170753   4.736   7.333  11.545 -1.0691  0.7893  0.5610
23104SOL    HW270754   4.732   7.320  11.696  0.3301 -0.9030  0.4879
23105SOL     OW70755   7.625   7.649   0.224  0.7872 -0.6745 -0.0030
23105SOL    HW170756   7.640   7.671   0.133  2.0311 -1.9050 -0.1238
23105SOL    HW270757   7.567   7.573   0.222  0.3423 -0.3534  0.2672
23106SOL     OW70758   5.537   7.181  11.287  0.1239  0.1685  0.1931
23106SOL    HW170759   5.620   7.137  11.269 -0.2091 -0.6722  0.6612
23106SOL    HW270760   5.514   7.154  11.376 -1.1856 -0.4902 -0.3203
23107SOL     OW70761   7.595   4.423   0.791  0.1657  0.3875  0.0355
23107SOL    HW170762   7.618   4.515   0.782 -0.2458  0.7799  2.4589
23107SOL    HW270763   7.674   4.382   0.829  0.4634 -0.3583 -1.3140
23108SOL     OW70764   7.289   7.697   0.402 -0.0982 -0.4350 -0.3057
23108SOL    HW170765   7.291   7.652   0.486  0.2810  0.0840 -0.0335
23108SOL    HW270766   7.222   7.764   0.412  0.4825  0.1292 -0.1532
23109SOL     OW70767   5.670   5.839  10.485  0.4015  0.0391 -0.1734
23109SOL    HW170768   5.738   5.895  10.524  0.8586  0.9799 -2.1782
23109SOL    HW270769   5.705   5.750  10.494  0.8301  0.2857  0.8339
23110SOL     OW70770   5.978   6.218   0.243  0.0307  0.3045  0.3777
23110SOL    HW170771   6.014   6.284   0.185 -1.3794  1.7869  1.1005
23110SOL    HW270772   5.891   6.200   0.208  0.9076 -2.3629 -0.6825
23111SOL     OW70773   7.591   6.327  12.079 -0.0075 -0.2780 -0.3838
23111SOL    HW170774   7.594   6.269  12.002 -1.5079  0.4398 -1.0240
23111SOL    HW270775   7.501   6.322  12.109  0.3613  0.1157  0.8314
23112SOL     OW70776   3.779   6.882  12.392  0.2724  0.1092 -0.3258
23112SOL    HW170777   3.685   6.881  12.375  0.2698 -0.4842 -0.3044
23112SOL    HW270778   3.815   6.942  12.327 -0.3896  2.2488  1.1499
23113SOL     OW70779   4.336   7.769   0.403  0.1031  0.3272  0.1576
23113SOL    HW170780   4.397   7.802   0.469  0.6782 -2.1896  0.9747
23113SOL    HW270781   4.267   7.725   0.453 -1.5937  1.7080 -0.8190
23114SOL     OW70782   6.716   0.214  12.333  0.3603  0.1918 -0.0724
23114SOL    HW170783   6.781   0.217  12.403 -0.0644 -1.9415  0.5033
23114SOL    HW270784   6.635   0.246  12.375  0.2566 -0.4630  0.2396
23115SOL     OW70785   5.917   4.803  12.318  0.1112  0.2128  0.0395
23115SOL    HW170786   5.933   4.861  12.393 -3.3730 -0.8423  1.8459
23115SOL    HW270787   5.955   4.720  12.344  1.1213  0.4932 -0.5208
23116SOL     OW70788   5.516   6.806   1.541 -0.4399  0.0267  0.3340
23116SOL    HW170789   5.496   6.741   1.608 -2.4846  0.2002 -0.0423
23116SOL    HW270790   5.599   6.844   1.569 -1.2944  0.2188  2.8610
23117SOL     OW70791   4.703   4.939  12.473  0.6732  0.5721  0.6867
23117SOL    HW170792   4.772   4.982  12.523 -0.5635  0.6141  2.4428
23117SOL    HW270793   4.627   4.996  12.482  0.6095  1.0394 -2.0427
23118SOL     OW70794   6.535   6.303  10.931 -0.2131 -0.2638 -0.1621
23118SOL    HW170795   6.528   6.214  10.966  0.6825 -0.5156 -0.5753
23118SOL    HW270796   6.542   6.359  11.008  3.0748 -0.9207  0.1792
23119SOL     OW70797   5.484   6.510  10.528 -0.3251 -0.2746  0.2669
23119SOL    HW170798   5.484   6.478  10.618 -0.6656 -1.0642 -0.0024
23119SOL    HW270799   5.397   6.549  10.516  0.1349  0.9266  0.6372
23120SOL     OW70800   5.508   5.367  12.294  0.1966  0.0014 -0.7467
23120SOL    HW170801   5.444   5.338  12.360 -0.5977  1.2345 -0.9492
23120SOL    HW270802   5.513   5.294  12.232 -0.6499 -0.3132 -0.4566
23121SOL     OW70803   6.988   5.704  12.119  0.4097 -0.0726 -0.4969
23121SOL    HW170804   7.007   5.624  12.169  1.2652 -0.1870 -0.9719
23121SOL    HW270805   6.970   5.674  12.031 -0.2422  0.1906 -0.4545
23122SOL     OW70806   5.392   6.337   0.082  0.2582  0.0380  0.0946
23122SOL    HW170807   5.419   6.249   0.055 -0.2230 -0.0044 -0.2622
23122SOL    HW270808   5.316   6.324   0.138  0.7338  0.1809  0.7898
23123SOL     OW70809   7.041   6.357  12.482  0.3385 -0.0708  0.1408
23123SOL    HW170810   7.049   6.438  12.532 -2.4708  0.2719  0.1754
23123SOL    HW270811   6.974   6.376  12.416  0.5940 -1.9729 -0.7321
23124SOL     OW70812   6.111   6.005   0.422 -0.3467  0.3878  0.1816
23124SOL    HW170813   6.199   6.043   0.431  0.0616 -0.4050 -0.2997
23124SOL    HW270814   6.063   6.068   0.369  0.2591  0.3396 -0.4439
23125SOL     OW70815   6.835   6.748   9.294  0.3832  0.2786  0.6298
23125SOL    HW170816   6.772   6.706   9.353  0.5254 -2.3287 -0.8910
23125SOL    HW270817   6.782   6.805   9.238 -0.7533 -1.9233 -0.6733
23126SOL     OW70818   6.171   6.694  10.301 -0.4779 -0.3550  0.1073
23126SOL    HW170819   6.256   6.650  10.307 -0.0542  0.4294 -0.1090
23126SOL    HW270820   6.170   6.734  10.214 -1.2466 -0.7056 -0.0568
23127SOL     OW70821   6.838   5.079   1.005 -0.0770  0.0661  0.5151
23127SOL    HW170822   6.829   5.162   1.051  0.7047  0.1484  0.5188
23127SOL    HW270823   6.827   5.102   0.913 -0.8156  0.0243  0.5877
23128SOL     OW70824   4.629   3.808  12.465  0.4418  0.2265  0.0334
23128SOL    HW170825   4.573   3.844  12.396  1.2864  1.4173 -0.0661
23128SOL    HW270826   4.711   3.787  12.419 -0.3119 -2.7949 -0.1150
23129SOL     OW70827   7.214   7.320   0.179 -0.3322  0.0084  0.5306
23129SOL    HW170828   7.146   7.386   0.185 -1.7519 -1.0084 -2.4289
23129SOL    HW270829   7.171   7.239   0.206  0.4011 -0.2804  0.8584
23130SOL     OW70830   7.626   6.722   9.990  0.1216  0.5016 -0.6934
23130SOL    HW170831   7.645   6.804   9.945 -0.7419  1.5722  0.8116
23130SOL    HW270832   7.585   6.748  10.072 -1.3141 -1.4613 -0.7066
23131SOL     OW70833   0.054   6.597  11.378  0.4170 -0.9539 -0.3598
23131SOL    HW170834   0.108   6.581  11.300 -1.5059 -0.2067 -1.9539
23131SOL    HW270835  -0.029   6.554  11.358  0.1659 -1.5250  1.7345
23132SOL     OW70836   5.466   6.539  10.928  0.0885  0.4604  0.0204
23132SOL    HW170837   5.528   6.611  10.913  0.5823  0.0636  0.1342
23132SOL    HW270838   5.486   6.509  11.017  1.0481 -0.9240 -0.6315
23133SOL     OW70839   7.210   7.430  11.979 -0.2638 -0.4878 -0.5187
23133SOL    HW170840   7.227   7.386  12.062 -1.4719  0.4443  0.2426
23133SOL    HW270841   7.249   7.517  11.990  2.2066 -1.2989 -2.0480
23134SOL     OW70842   6.862   7.089  11.292 -0.3364 -0.2660  0.4956
23134SOL    HW170843   6.921   7.014  11.299 -0.5588 -0.6835 -1.5617
23134SOL    HW270844   6.815   7.090  11.375 -0.0922 -2.2088  0.6982
23135SOL     OW70845   5.534   5.774  11.558 -0.1909  0.0159  0.4389
23135SOL    HW170846   5.451   5.781  11.511 -0.4020 -1.5035  0.5410
23135SOL    HW270847   5.513   5.727  11.639  1.0571 -2.3080 -0.4807
23136SOL     OW70848   6.704   5.231   0.168 -0.0254  0.4321 -0.0222
23136SOL    HW170849   6.795   5.244   0.140 -0.0130  1.6603  0.5055
23136SOL    HW270850   6.700   5.270   0.256 -1.0803  0.4903 -0.0799
23137SOL     OW70851   6.498   6.935  10.800 -0.1728  0.2870  0.4513
23137SOL    HW170852   6.419   6.987  10.811 -1.2407 -1.4811  1.5381
23137SOL    HW270853   6.518   6.902  10.888  0.6043 -0.9019 -0.1352
23138SOL     OW70854   4.462   7.229   0.077  0.3229 -0.0761 -0.2848
23138SOL    HW170855   4.400   7.158   0.092  0.3463 -0.2614 -1.0765
23138SOL    HW270856   4.548   7.186   0.074  0.6717  0.3157  2.0906
23139SOL     OW70857   7.210   6.095   2.587 -0.1192  0.3061 -0.4507
23139SOL    HW170858   7.278   6.159   2.607 -0.0524 -0.1875  1.0254
23139SOL    HW270859   7.246   6.011   2.616 -0.3248 -0.3803 -2.0645
23140SOL     OW70860   6.928   6.643  11.894 -0.6879  0.0145 -0.5528
23140SOL    HW170861   7.004   6.661  11.950 -0.6663  0.9341 -0.8681
23140SOL    HW270862   6.949   6.559  11.853  0.3879  0.4737 -0.9947
23141SOL     OW70863   4.580   5.749   0.554  0.4853 -0.0552 -0.1346
23141SOL    HW170864   4.511   5.802   0.513 -0.2177  0.0386  1.1216
23141SOL    HW270865   4.660   5.801   0.543  0.0029  0.7560  0.1050
23142SOL     OW70866   3.902   5.732  12.292 -0.3767  0.1051  0.2088
23142SOL    HW170867   3.917   5.779  12.210  0.2145  1.0782  0.8607
23142SOL    HW270868   3.988   5.724  12.332 -0.5808 -0.8564  0.4811
23143SOL     OW70869   0.342   7.257  11.085 -0.4159 -0.3762  0.1665
23143SOL    HW170870   0.257   7.238  11.045 -1.3257 -1.4320  2.3673
23143SOL    HW270871   0.379   7.170  11.103  2.2654 -0.0153 -2.7362
23144SOL     OW70872   6.184   6.391  12.355 -0.1083  0.4233 -0.4420
23144SOL    HW170873   6.153   6.335  12.284 -1.7066  0.5901  0.0974
23144SOL    HW270874   6.276   6.367  12.365 -0.7638 -2.3141 -0.0897
23145SOL     OW70875   6.629   6.967  10.365  0.2770  0.0195 -0.0045
23145SOL    HW170876   6.683   7.041  10.393  1.7902 -0.3523 -1.7402
23145SOL    HW270877   6.645   6.960  10.271  0.7320 -2.9060  0.1953
23146SOL     OW70878   6.788   7.625  12.317  0.2352 -0.1021 -0.2729
23146SOL    HW170879   6.769   7.533  12.336 -0.9463  0.0794 -0.5176
23146SOL    HW270880   6.749   7.640  12.231 -0.6942  0.9568  0.3224
23147SOL     OW70881   5.679   7.255   1.264 -0.0975  0.4407  0.3584
23147SOL    HW170882   5.634   7.228   1.344  1.0139 -0.1907  0.7842
23147SOL    HW270883   5.716   7.341   1.285 -2.6948  1.9237 -0.6373
23148SOL     OW70884   6.363   5.787   0.579 -0.6324 -0.5883 -0.0583
23148SOL    HW170885   6.332   5.878   0.576 -0.3920 -0.4361  1.3581
23148SOL    HW270886   6.436   5.784   0.518 -1.0722 -0.0109 -0.6291
23149SOL     OW70887   6.550   6.445  11.614 -0.3360  0.3460  0.6519
23149SOL    HW170888   6.618   6.511  11.631  0.1371 -0.7589  3.6500
23149SOL    HW270889   6.590   6.385  11.551 -0.1071  1.8666 -0.7259
23150SOL     OW70890   4.363   5.339   0.991  0.3263 -0.5045  0.7103
23150SOL    HW170891   4.298   5.367   1.056  0.7695  0.3105  0.8271
23150SOL    HW270892   4.447   5.361   1.031  0.6719 -1.4884  0.5331
23151SOL     OW70893   5.916   5.891  11.515 -0.3660 -0.1374 -0.5038
23151SOL    HW170894   5.982   5.953  11.483  0.0947 -1.3853 -2.0757
23151SOL    HW270895   5.833   5.940  11.511  0.4853  1.7911  2.4533
23152SOL     OW70896   5.776   7.847  11.439  0.3035 -0.1253 -0.1801
23152SOL    HW170897   5.746   7.896  11.516  1.3902  1.3038 -0.6175
23152SOL    HW270898   5.867   7.825  11.458 -0.5429 -3.4614  0.6711
23153SOL     OW70899   4.149   7.102  10.840 -0.1857  0.1933 -0.1618
23153SOL    HW170900   4.175   7.010  10.850  0.0967  0.4612  1.7830
23153SOL    HW270901   4.094   7.102  10.761 -0.2012 -1.6462 -0.2044
23154SOL     OW70902   5.848   6.721   9.964  0.1775 -0.7473 -0.1888
23154SOL    HW170903   5.854   6.639  10.012  1.6469 -2.1454 -2.5966
23154SOL    HW270904   5.767   6.713   9.913  0.5001 -0.8727 -0.6895
23155SOL     OW70905   5.529   6.260  12.297 -0.1151  0.4118  0.1734
23155SOL    HW170906   5.518   6.301  12.211  0.3556  1.2399  0.5075
23155SOL    HW270907   5.596   6.193  12.283 -0.9352 -0.3286 -0.3864
23156SOL     OW70908   7.221   7.408   9.331  0.1151  0.5648 -0.3120
23156SOL    HW170909   7.194   7.448   9.248  0.0011  0.8581 -0.1339
23156SOL    HW270910   7.162   7.334   9.342  1.5558 -0.8764 -1.6202
23157SOL     OW70911   7.398   5.760  12.376 -0.0801 -0.3051  0.0719
23157SOL    HW170912   7.455   5.701  12.425  0.3965  0.3953  0.3781
23157SOL    HW270913   7.338   5.796  12.441  0.0822  0.0711  0.0215
23158SOL     OW70914   7.600   7.638  11.461 -0.1565 -0.6779 -0.1295
23158SOL    HW170915   7.618   7.574  11.531 -0.2153 -0.7323 -0.1639
23158SOL    HW270916   7.555   7.710  11.506 -1.0596 -1.1347 -0.2700
23159SOL     OW70917   5.712   6.083  12.142  0.1302  0.0553 -0.1551
23159SOL    HW170918   5.741   6.011  12.197  0.0034  0.9444  1.1206
23159SOL    HW270919   5.785   6.145  12.143 -0.1106  0.3478 -0.4941
23160SOL     OW70920   5.777   5.410  12.283  0.1200 -0.2384  0.3246
23160SOL    HW170921   5.695   5.367  12.262  0.6384 -0.3680 -1.5588
23160SOL    HW270922   5.808   5.365  12.362 -1.4168 -0.4313  0.8425
23161SOL     OW70923   1.451   4.045  11.650 -0.2774 -0.1030 -0.3510
23161SOL    HW170924   1.482   4.103  11.580  2.0112 -0.5417  0.2128
23161SOL    HW270925   1.516   3.975  11.653 -3.0368 -2.9093 -1.1397
23162SOL     OW70926   6.736   7.377   0.769 -0.8756  0.5901  0.1444
23162SOL    HW170927   6.645   7.365   0.796 -0.3681 -3.0652  0.7132
23162SOL    HW270928   6.788   7.359   0.847  0.3971 -3.8689 -1.3963
23163SOL     OW70929   4.955   1.470   0.406 -0.2951  0.1259  1.0323
23163SOL    HW170930   5.042   1.458   0.443 -0.3586 -0.8922  0.9063
23163SOL    HW270931   4.963   1.545   0.347 -0.0065  1.2785  2.4835
23164SOL     OW70932   4.121   7.013   0.552  0.1660 -0.4976  0.0721
23164SOL    HW170933   4.095   6.977   0.467  0.0726 -0.0955 -0.0698
23164SOL    HW270934   4.042   7.055   0.586  0.2523 -0.4999  0.2763
23165SOL     OW70935   7.339   6.205   2.242 -0.1607 -0.8469 -0.1394
23165SOL    HW170936   7.318   6.131   2.299  0.6093 -1.8259 -1.0684
23165SOL    HW270937   7.269   6.205   2.176  0.0097 -0.9543 -0.3223
23166SOL     OW70938   6.459   6.687  10.243 -0.2737  0.0411  0.5782
23166SOL    HW170939   6.489   6.774  10.215 -0.5482 -0.2352 -0.5857
23166SOL    HW270940   6.526   6.658  10.304  1.8193 -0.4962 -1.8336
23167SOL     OW70941   6.975   6.894  10.605  0.0703 -0.0269 -0.3562
23167SOL    HW170942   7.034   6.831  10.647 -0.4871  0.1794  0.7789
23167SOL    HW270943   6.922   6.928  10.677  0.0647  1.4280 -1.0127
23168SOL     OW70944   4.933   4.521   0.792  0.3216 -0.1182 -0.0267
23168SOL    HW170945   4.850   4.568   0.801  0.7249  0.5487  0.2526
23168SOL    HW270946   4.909   4.438   0.751 -0.3059  0.6293 -1.2198
23169SOL     OW70947   7.025   6.790  12.293 -0.5277 -0.2023  0.3981
23169SOL    HW170948   7.066   6.785  12.207  0.5810 -0.9510  0.9421
23169SOL    HW270949   7.013   6.883  12.309 -0.0094 -0.0213 -0.2311
23170SOL     OW70950   4.220   7.348  10.142  0.1403 -0.3002 -0.1573
23170SOL    HW170951   4.272   7.268  10.136  0.8116  0.1522 -0.4907
23170SOL    HW270952   4.276   7.416  10.105 -0.1524  0.4567  0.7496
23171SOL     OW70953   6.884   5.898  11.884  0.4421  0.4530 -0.3359
23171SOL    HW170954   6.875   5.923  11.976 -0.7450  0.6714 -0.4947
23171SOL    HW270955   6.917   5.808  11.886 -2.2617 -0.6160  0.3867
23172SOL     OW70956   6.866   5.623  11.380  0.1972 -0.6601  0.5598
23172SOL    HW170957   6.873   5.634  11.475  0.9564  0.1907  0.4214
23172SOL    HW270958   6.788   5.569  11.367 -0.5083  0.0718  1.6216
23173SOL     OW70959   7.642   4.769   1.555  0.6458  0.2418  0.1599
23173SOL    HW170960   7.611   4.745   1.643  0.9122  0.7272  0.3907
23173SOL    HW270961   7.732   4.735   1.552  1.3016  1.8283  0.7716
23174SOL     OW70962   7.154   7.051  12.002  0.6324  0.4031  0.2557
23174SOL    HW170963   7.172   7.117  12.068  0.8455 -1.2721  1.9783
23174SOL    HW270964   7.240   7.027  11.969  0.6577  0.2008  0.4627
23175SOL     OW70965   4.786   6.658  12.250  0.4726 -0.2350  0.1862
23175SOL    HW170966   4.745   6.744  12.251 -2.4355 -1.4953  1.2422
23175SOL    HW270967   4.739   6.610  12.182  0.9383 -1.4624  0.6966
23176SOL     OW70968   7.018   6.180   0.265 -0.3925  0.5286  0.0865
23176SOL    HW170969   7.051   6.090   0.264 -1.8224 -0.0407 -1.2268
23176SOL    HW270970   6.929   6.172   0.231 -0.5835  2.4394  0.0596
23177SOL     OW70971   7.746   6.073   0.353 -0.6133 -0.0315  0.3182
23177SOL    HW170972   7.686   6.010   0.394 -1.2952  0.8857  0.7696
23177SOL    HW270973   7.744   6.051   0.260  0.7634 -1.9874  0.6810
23178SOL     OW70974   6.350   6.158  11.649  0.4096  0.3528  0.6954
23178SOL    HW170975   6.290   6.103  11.700  1.1430 -0.8532  0.2910
23178SOL    HW270976   6.408   6.197  11.714 -0.6600  1.3930  1.0761
23179SOL     OW70977   7.317   0.845  10.208 -0.0516  0.3864 -0.2290
23179SOL    HW170978   7.334   0.823  10.116  1.3773  0.0926  0.0843
23179SOL    HW270979   7.404   0.848  10.249 -0.7458 -0.9130  1.4429
23180SOL     OW70980   0.241   7.349  11.323  0.2127  0.1262 -0.1595
23180SOL    HW170981   0.279   7.330  11.237 -0.4244  0.6141 -0.5564
23180SOL    HW270982   0.207   7.438  11.315  1.0966  0.5753  0.9418
23181SOL     OW70983   6.698   5.562  12.457 -0.1207 -0.3909  0.0002
23181SOL    HW170984   6.745   5.486  12.424  0.3552 -0.4964  0.8771
23181SOL    HW270985   6.734   5.575  12.545 -2.0917 -0.8119  0.9247
23182SOL     OW70986   6.000   5.615  12.262 -1.1891 -0.0416 -0.1654
23182SOL    HW170987   5.942   5.675  12.310 -0.0252  1.4677 -0.5519
23182SOL    HW270988   6.064   5.587  12.327 -0.9835  0.1493 -0.2844
23183SOL     OW70989   6.332   5.206  11.394  0.8218  0.5514 -0.6378
23183SOL    HW170990   6.353   5.286  11.442 -1.1194  0.9976 -0.4457
23183SOL    HW270991   6.314   5.234  11.305  0.7514  0.2356 -0.7270
23184SOL     OW70992   6.228   4.026  12.472 -0.2696  0.1895  0.4540
23184SOL    HW170993   6.167   3.954  12.455 -1.2407  1.2057 -0.5910
23184SOL    HW270994   6.172   4.104  12.473  0.8668  1.0143  0.7222
23185SOL     OW70995   5.343   7.175   9.041 -0.0015  0.3390 -0.1910
23185SOL    HW170996   5.311   7.259   9.074  0.5294  1.0005 -1.2883
23185SOL    HW270997   5.424   7.159   9.089  2.4746  2.8266 -3.1009
23186SOL     OW70998   7.101   7.483  10.557  0.0996 -0.1437  0.3310
23186SOL    HW170999   7.156   7.457  10.631  0.5613 -0.2270 -0.0398
23186SOL    HW271000   7.162   7.511  10.490 -0.2778 -0.7947 -0.3026
23187SOL     OW71001   5.844   6.369  12.161 -0.2458  0.0955  0.2171
23187SOL    HW171002   5.795   6.387  12.081  0.4520 -0.6413 -0.4008
23187SOL    HW271003   5.920   6.319  12.132  0.5000  0.5951  1.2352
23188SOL     OW71004   6.405   6.004  12.302  0.0073 -0.2453  0.0599
23188SOL    HW171005   6.434   6.083  12.257  0.6251  0.1956  1.1804
23188SOL    HW271006   6.327   6.030  12.350  0.1698 -0.3284  0.3739
23189SOL     OW71007   4.455   7.372  10.687  0.4830 -0.1684 -0.1927
23189SOL    HW171008   4.462   7.372  10.591  0.8798 -0.6939 -0.1656
23189SOL    HW271009   4.477   7.282  10.713 -1.1781 -0.4555  0.2857
23190SOL     OW71010   7.096   5.459   0.692  0.0365 -0.0263  0.1087
23190SOL    HW171011   7.102   5.418   0.778  0.9963  1.8531  1.0009
23190SOL    HW271012   7.158   5.411   0.638 -0.7137 -1.3477  0.3759
23191SOL     OW71013   4.483   7.309  11.205  0.1234 -0.0386  0.1764
23191SOL    HW171014   4.510   7.269  11.123 -3.3239 -0.0738 -1.0788
23191SOL    HW271015   4.444   7.237  11.255  1.0802  0.2322  1.3615
23192SOL     OW71016   6.604   6.393  10.372 -0.1421 -0.0509 -0.3101
23192SOL    HW171017   6.517   6.420  10.403  1.2329  1.8843  2.2951
23192SOL    HW271018   6.610   6.300  10.395 -1.7977 -0.4725 -1.3814
23193SOL     OW71019   7.601   5.987  10.792 -0.3393  0.1371 -0.2994
23193SOL    HW171020   7.555   5.904  10.797 -1.8267  0.9748  3.0336
23193SOL    HW271021   7.674   5.977  10.853 -0.6767  1.2848  0.3265
23194SOL     OW71022   7.060   7.075  12.410  0.0517 -0.2435  0.2226
23194SOL    HW171023   7.042   7.068  12.504 -1.2013  0.7603  0.0918
23194SOL    HW271024   6.996   7.140  12.379 -1.6522 -2.7316 -1.8601
23195SOL     OW71025   7.512   7.277   0.480 -0.4606 -0.4660 -0.0697
23195SOL    HW171026   7.590   7.316   0.518 -0.4647 -2.4643  2.2090
23195SOL    HW271027   7.473   7.348   0.428  0.3559  2.0576  2.4815
23196SOL     OW71028   7.077   6.932   0.555 -0.0153 -0.0123  0.2237
23196SOL    HW171029   7.130   6.854   0.540  2.9852  1.8495  0.4265
23196SOL    HW271030   7.107   6.995   0.490 -2.0228  1.1738  0.3495
23197SOL     OW71031   6.176   4.026   0.625 -0.3494  0.3781 -0.2355
23197SOL    HW171032   6.101   3.967   0.631  0.4470 -0.5802  0.8766
23197SOL    HW271033   6.211   4.011   0.537  1.2494 -2.6954  0.7755
23198SOL     OW71034   4.456   5.845   0.139  0.3850  0.0026 -0.1355
23198SOL    HW171035   4.487   5.755   0.142 -0.8495 -0.4494 -0.6069
23198SOL    HW271036   4.363   5.839   0.117 -0.2565  1.2694  1.8658
23199SOL     OW71037   1.118   7.355  11.049 -0.1874  0.3704 -0.4331
23199SOL    HW171038   1.047   7.295  11.073 -0.0025  0.0854 -0.5973
23199SOL    HW271039   1.079   7.442  11.057 -0.5603  0.2141 -0.5267
23200SOL     OW71040   4.846   0.293  10.733  0.1556 -0.1875 -0.1010
23200SOL    HW171041   4.927   0.333  10.764  2.0272 -3.1469 -0.8447
23200SOL    HW271042   4.824   0.228  10.799  1.1066 -2.6722 -2.0891
23201SOL     OW71043   6.271   7.835   0.039  0.0232 -0.2984  0.5830
23201SOL    HW171044   6.209   7.783   0.090  0.2952 -0.4038  0.8097
23201SOL    HW271045   6.246   7.818  -0.052  0.7422 -1.6459  0.6107
23202SOL     OW71046   5.958   5.653  11.639 -0.1884 -0.3739  0.2295
23202SOL    HW171047   5.963   5.596  11.563 -1.0585 -0.4668  0.2407
23202SOL    HW271048   5.966   5.742  11.604  0.9808 -0.4679  0.1966
23203SOL     OW71049   5.254   7.214   9.831 -0.0066 -0.2278 -0.0532
23203SOL    HW171050   5.270   7.136   9.884 -1.3295  0.7641  1.9468
23203SOL    HW271051   5.205   7.182   9.755  1.1275 -1.5726 -0.2509
23204SOL     OW71052   7.817   5.036  11.778  0.4526 -0.3203 -0.3817
23204SOL    HW171053   7.828   5.087  11.859 -2.3311 -0.1598  0.0066
23204SOL    HW271054   7.764   5.093  11.722 -0.9615 -1.9091 -0.7484
23205SOL     OW71055   6.765   7.938   0.265 -0.3396 -0.1555 -0.2445
23205SOL    HW171056   6.783   7.940   0.359  1.0361  0.4577 -0.4967
23205SOL    HW271057   6.806   7.858   0.234 -1.8979 -1.0231 -0.1392
23206SOL     OW71058   0.568   5.383   0.505 -0.5150  0.1614  0.1909
23206SOL    HW171059   0.585   5.327   0.429 -0.0968  2.5651 -1.6046
23206SOL    HW271060   0.631   5.355   0.571 -1.1941 -2.2940 -0.1055
23207SOL     OW71061   6.156   6.066  12.396 -0.1773 -0.3659  0.2499
23207SOL    HW171062   6.145   6.105  12.309  1.8534  2.3105  1.0562
23207SOL    HW271063   6.082   6.098  12.447  0.1657  0.4481  0.2452
23208SOL     OW71064   5.785   5.676  12.398  0.2098 -0.3522  0.0942
23208SOL    HW171065   5.709   5.682  12.455  0.7465 -0.3019  0.8155
23208SOL    HW271066   5.787   5.585  12.368 -1.8962  0.3285 -2.4196
23209SOL     OW71067   6.444   0.970  11.624 -0.1053 -0.3101  0.3083
23209SOL    HW171068   6.408   1.058  11.612 -3.4958 -1.3271  1.8017
23209SOL    HW271069   6.490   0.974  11.708 -0.0100  0.1007  0.2377
23210SOL     OW71070   6.506   3.187  11.971  0.2974 -0.1102  0.4257
23210SOL    HW171071   6.451   3.111  11.951 -1.0505  0.7198  0.8844
23210SOL    HW271072   6.454   3.239  12.032  1.8151  0.4552  1.2972
23211SOL     OW71073   5.355   5.660   0.194  0.1612  0.1005 -0.3318
23211SOL    HW171074   5.309   5.611   0.126 -1.4028  0.6071  0.3111
23211SOL    HW271075   5.297   5.733   0.215  1.5108  1.0783  0.1642
23212SOL     OW71076   6.798   3.589  11.354  0.2793  0.3708 -0.3030
23212SOL    HW171077   6.744   3.512  11.337  0.2369  0.6011 -1.3276
23212SOL    HW271078   6.735   3.656  11.382  0.2014  0.2732 -0.2449
23213SOL     OW71079   4.917   5.362  10.033  0.4881  0.5785 -0.5087
23213SOL    HW171080   4.994   5.346  10.088  0.3210 -0.3638 -0.5301
23213SOL    HW271081   4.856   5.409  10.090 -0.7282 -2.6168  1.0338
23214SOL     OW71082   6.632   5.633  11.669  0.0259  0.8927  0.6074
23214SOL    HW171083   6.607   5.670  11.753  0.8478  0.4949  1.0434
23214SOL    HW271084   6.570   5.671  11.606 -0.4999  1.3100  1.3599
23215SOL     OW71085   4.083   7.041   1.571  0.2092  0.2487  0.0337
23215SOL    HW171086   4.087   7.124   1.523  4.2408 -0.2906 -0.9902
23215SOL    HW271087   4.121   6.977   1.510 -1.6552 -2.1450  1.2280
23216SOL     OW71088   7.334   6.648  12.404  0.1967 -0.0080 -0.5026
23216SOL    HW171089   7.352   6.600  12.485  0.0894  0.6409 -0.0871
23216SOL    HW271090   7.293   6.584  12.347  0.3464 -0.4967 -0.0741
23217SOL     OW71091   7.408   0.335  12.104 -0.3447 -0.1473  0.0617
23217SOL    HW171092   7.444   0.247  12.097 -1.9949 -1.0791  1.9894
23217SOL    HW271093   7.360   0.349  12.022 -1.2315 -1.6688  0.2804
23218SOL     OW71094   4.721   0.281   0.391  0.1199 -0.1801  0.3100
23218SOL    HW171095   4.807   0.305   0.426  1.0978 -0.9944 -1.3900
23218SOL    HW271096   4.703   0.195   0.428  1.0275 -0.9237 -0.9130
23219SOL     OW71097   7.304   7.155   0.920  0.0715 -0.3323  0.0240
23219SOL    HW171098   7.394   7.188   0.918  0.3483 -1.0180  0.7745
23219SOL    HW271099   7.265   7.188   0.839  0.3330  1.8037  0.7147
23220SOL     OW71100   0.605   0.099   0.878  0.0800  0.2028 -0.0062
23220SOL    HW171101   0.529   0.100   0.937  0.2292  1.2037  0.1951
23220SOL    HW271102   0.668   0.041   0.921  0.3981  1.3246  1.1346
23221SOL     OW71103   6.327   1.367   1.372 -0.7397  0.2715 -0.4609
23221SOL    HW171104   6.355   1.305   1.304  2.0051  1.5506 -0.6389
23221SOL    HW271105   6.363   1.333   1.453 -1.0629  0.5385 -0.1992
23222SOL     OW71106   6.496   7.528   1.501 -0.3460 -0.3897  0.0372
23222SOL    HW171107   6.530   7.595   1.441 -1.1820 -0.6920 -0.7952
23222SOL    HW271108   6.564   7.460   1.503  0.7545  0.6820  1.3008
23223SOL     OW71109   5.296   0.432   1.403  0.3898 -0.5439  0.3526
23223SOL    HW171110   5.210   0.454   1.438  0.7024 -0.5385  1.1497
23223SOL    HW271111   5.278   0.386   1.321 -0.3306  0.4549 -0.0601
23224SOL     OW71112   0.344   0.317   1.731 -0.0974  0.1409 -0.1893
23224SOL    HW171113   0.306   0.234   1.702  1.7987 -0.9207  0.1525
23224SOL    HW271114   0.381   0.298   1.818  1.4143  0.9834 -0.6027
23225SOL     OW71115   6.690   0.150   1.851  0.5018 -0.0786  0.1517
23225SOL    HW171116   6.770   0.110   1.816 -0.6879 -1.4673 -1.1046
23225SOL    HW271117   6.619   0.110   1.800 -0.9691  1.4906  0.8945
23226SOL     OW71118   6.735   1.401   0.414 -0.0145  0.5602 -0.1484
23226SOL    HW171119   6.779   1.475   0.454  0.0036  1.5695 -1.9548
23226SOL    HW271120   6.788   1.379   0.337  0.4320 -1.8765  0.7409
23227SOL     OW71121   6.011   0.118   1.204 -0.3466 -0.1330 -0.5642
23227SOL    HW171122   6.078   0.055   1.229  1.0285  1.4753 -0.0436
23227SOL    HW271123   6.024   0.130   1.110  0.4255  0.5269 -0.3792
23228SOL     OW71124   5.356   7.241   2.106 -0.4677 -0.5686  0.7078
23228SOL    HW171125   5.410   7.305   2.152 -0.0077 -1.2079  1.0715
23228SOL    HW271126   5.366   7.263   2.013 -1.5457  0.8443  0.8958
23229SOL     OW71127   0.052   7.481   0.255  0.2180 -0.6739 -0.2385
23229SOL    HW171128   0.097   7.494   0.338 -0.2026 -1.3464  0.1111
23229SOL    HW271129  -0.019   7.546   0.255 -0.8947 -1.8231  0.7673
23230SOL     OW71130   0.082   6.887   2.332  0.6798  0.0233  0.3434
23230SOL    HW171131   0.082   6.825   2.405  0.2611 -0.2786  0.0951
23230SOL    HW271132   0.170   6.881   2.295  0.4671 -0.8696 -0.0442
23231SOL     OW71133   0.563   0.625   3.940  0.0821 -0.2922  0.2927
23231SOL    HW171134   0.568   0.531   3.953 -1.0172 -0.1661  1.9108
23231SOL    HW271135   0.652   0.651   3.917  0.7690 -1.5150  1.4289
23232SOL     OW71136   6.383   0.461   1.285  0.2120 -0.1619 -0.0986
23232SOL    HW171137   6.394   0.405   1.208 -0.1286  0.2311 -0.4383
23232SOL    HW271138   6.406   0.405   1.359 -1.7910 -1.2851 -0.2643
23233SOL     OW71139   7.879   7.705   0.303  0.5430 -0.3295  0.1186
23233SOL    HW171140   7.865   7.766   0.375  1.3181 -0.4161  0.3469
23233SOL    HW271141   7.791   7.674   0.281  0.3774 -1.0664  1.6917
23234SOL     OW71142   0.507   7.484   2.610  0.1762 -0.3578 -0.0121
23234SOL    HW171143   0.484   7.395   2.586  0.6446 -0.3850 -0.3875
23234SOL    HW271144   0.588   7.476   2.660  0.1254 -0.1602  0.1049
23235SOL     OW71145   1.464   0.275   0.393  1.0713 -0.2505 -0.0967
23235SOL    HW171146   1.423   0.201   0.349  1.2061 -0.3229 -0.1003
23235SOL    HW271147   1.502   0.238   0.473  0.2509 -0.0081  0.4258
23236SOL     OW71148   6.393   0.931   1.903  0.0622  0.7434  0.1513
23236SOL    HW171149   6.386   0.915   1.809  0.3391  1.7799 -0.0569
23236SOL    HW271150   6.440   0.855   1.936 -0.7574 -0.0400 -0.4059
23237SOL     OW71151   4.995   1.548   2.168  0.6394 -0.2546 -0.1910
23237SOL    HW171152   4.977   1.496   2.246 -1.0387 -1.7213 -1.4820
23237SOL    HW271153   4.972   1.637   2.193 -2.8375 -1.1210  0.1805
23238SOL     OW71154   4.943   6.828   0.615 -0.5810  0.2660  0.2792
23238SOL    HW171155   5.033   6.862   0.612 -0.4196 -0.1119  0.8217
23238SOL    HW271156   4.929   6.791   0.527  0.1777 -0.6431  0.5224
23239SOL     OW71157   6.695   1.254  11.816 -0.5857 -0.0795 -0.3218
23239SOL    HW171158   6.633   1.182  11.803 -0.5685 -0.0186 -0.7408
23239SOL    HW271159   6.732   1.238  11.903 -0.1438 -0.9098 -0.6473
23240SOL     OW71160   7.618   7.980  12.263 -0.3801  0.2358 -0.3387
23240SOL    HW171161   7.544   8.003  12.205 -0.2951  1.6622  0.0677
23240SOL    HW271162   7.678   7.931  12.207 -0.3489  1.5016 -1.4605
23241SOL     OW71163   4.876   7.349   0.602  0.0587  0.5925 -0.1634
23241SOL    HW171164   4.847   7.402   0.676 -0.3601  0.7869 -0.4652
23241SOL    HW271165   4.812   7.278   0.596  2.0426 -1.5697  1.9225
23242SOL     OW71166   7.092   1.272   0.717 -0.8557 -0.3373  0.6125
23242SOL    HW171167   7.055   1.310   0.637  1.0333  0.1900 -0.0550
23242SOL    HW271168   7.119   1.348   0.769  0.2396 -0.7124  0.6017
23243SOL     OW71169   6.721   7.752   1.067 -0.5361 -0.1361  0.0083
23243SOL    HW171170   6.740   7.845   1.055 -0.0485 -0.1650  0.4997
23243SOL    HW271171   6.752   7.711   0.986  1.2946 -0.1377  0.6657
23244SOL     OW71172   6.586   7.889   0.701  0.1178 -0.2949 -0.5702
23244SOL    HW171173   6.569   7.800   0.733 -1.1188 -0.3071 -1.2455
23244SOL    HW271174   6.517   7.942   0.740  0.3818  0.2331 -0.8177
23245SOL     OW71175   7.480   0.407   0.169 -0.1980 -0.6932  0.2655
23245SOL    HW171176   7.419   0.475   0.199 -0.2863  0.4159 -2.2008
23245SOL    HW271177   7.427   0.350   0.114  0.4904 -1.1127  0.0235
23246SOL     OW71178   5.539   7.939   1.067 -0.1927 -0.3591  0.1582
23246SOL    HW171179   5.445   7.937   1.052 -0.2725  2.4765 -0.1867
23246SOL    HW271180   5.551   7.993   1.145  1.1554 -0.4681  0.0589
23247SOL     OW71181   6.424   7.312   0.782 -0.2837 -0.1401 -0.2871
23247SOL    HW171182   6.397   7.393   0.739 -1.3235  0.6137  1.6650
23247SOL    HW271183   6.345   7.281   0.827  0.7948 -0.7107  1.2979
23248SOL     OW71184   6.192   6.901  12.494 -0.5547 -0.0011  0.3950
23248SOL    HW171185   6.171   6.977  12.440  1.5884 -0.1336 -0.7275
23248SOL    HW271186   6.169   6.825  12.440  3.0197 -0.1673 -1.1625
23249SOL     OW71187   5.771   7.636   1.861  0.8825 -0.1952 -0.3194
23249SOL    HW171188   5.742   7.692   1.933 -1.5132  0.2794 -1.5522
23249SOL    HW271189   5.863   7.661   1.846  0.4781  1.9576  0.4817
23250SOL     OW71190   6.686   6.933   1.026 -0.1537 -0.0228 -0.2544
23250SOL    HW171191   6.649   7.012   0.988 -1.6455 -0.6759 -0.2075
23250SOL    HW271192   6.737   6.964   1.101 -0.0391  0.9547 -0.7184
23251SOL     OW71193   6.650   0.545  12.296 -0.4228  0.2568 -0.2732
23251SOL    HW171194   6.563   0.550  12.336  0.0538  1.2240  0.6840
23251SOL    HW271195   6.650   0.614  12.230 -0.1456  0.7298  0.2171
23252SOL     OW71196   6.248   0.531   0.143 -0.1497 -0.2724 -0.4535
23252SOL    HW171197   6.188   0.605   0.155  0.3119 -0.0041  0.2754
23252SOL    HW271198   6.227   0.472   0.215  0.4062 -0.2107 -0.2395
23253SOL     OW71199   6.077   7.164   0.584 -0.2613 -0.4269  0.4657
23253SOL    HW171200   6.000   7.107   0.586 -0.8878  0.3806  0.1828
23253SOL    HW271201   6.094   7.184   0.676 -0.1825 -0.8879  0.5502
23254SOL     OW71202   6.813   1.032  11.494  0.1662  0.0077  0.1519
23254SOL    HW171203   6.751   1.094  11.456 -0.4542 -0.6078  0.1472
23254SOL    HW271204   6.889   1.037  11.437 -0.3719 -0.1721 -0.5975
23255SOL     OW71205   6.358   6.709   0.154 -0.6183  0.3459  0.7188
23255SOL    HW171206   6.423   6.765   0.196 -0.5808  0.5346  0.4159
23255SOL    HW271207   6.349   6.746   0.066  0.6793 -1.1714 -0.0889
23256SOL     OW71208   7.730   7.963   1.331 -0.0304  0.2042  0.8095
23256SOL    HW171209   7.696   7.966   1.421 -1.4343 -2.3152  0.4637
23256SOL    HW271210   7.670   8.019   1.281  0.1303  0.7812  1.2575
23257SOL     OW71211   0.633   0.181   3.343  0.0954  0.4365 -0.2943
23257SOL    HW171212   0.718   0.139   3.360  0.4648  1.2282 -0.1608
23257SOL    HW271213   0.614   0.159   3.252  1.4313  1.9165 -0.9923
23258SOL     OW71214   6.934   7.697   3.289  0.2851  0.2182 -0.1246
23258SOL    HW171215   6.974   7.784   3.287  1.1954 -0.1950 -0.5943
23258SOL    HW271216   6.888   7.690   3.205  0.7737  0.0025 -0.3808
23259SOL     OW71217   5.978   0.108   0.917  0.0561 -0.6371 -0.4246
23259SOL    HW171218   6.021   0.024   0.932  1.3947 -0.2650 -1.9101
23259SOL    HW271219   5.893   0.084   0.880  0.4300 -1.3499 -0.8611
23260SOL     OW71220   5.434   7.513   1.056 -0.1709  0.5439  0.0955
23260SOL    HW171221   5.411   7.488   1.145 -0.8523 -0.4783 -0.3527
23260SOL    HW271222   5.352   7.509   1.007 -0.0554  2.3370 -0.3244
23261SOL     OW71223   6.020   1.118  12.329  0.1697  0.7108 -0.1614
23261SOL    HW171224   5.954   1.099  12.263  2.5517  1.4495 -2.9504
23261SOL    HW271225   5.985   1.192  12.378 -1.2018  0.8566 -1.3213
23262SOL     OW71226   0.280   5.771   2.288 -0.4048 -0.5864 -0.0803
23262SOL    HW171227   0.340   5.709   2.245  0.8601  0.5579 -0.0470
23262SOL    HW271228   0.218   5.795   2.219 -0.4956 -1.3593 -0.2804
23263SOL     OW71229   7.115   6.572   0.197 -0.1516 -0.2054 -0.1305
23263SOL    HW171230   7.181   6.506   0.181 -0.8062 -0.4908 -1.8792
23263SOL    HW271231   7.119   6.589   0.291  1.5205 -1.1155 -0.0176
23264SOL     OW71232   7.534   7.074   0.096  0.0704 -0.1827 -0.0286
23264SOL    HW171233   7.453   7.034   0.065 -1.2594  0.6321  2.2042
23264SOL    HW271234   7.555   7.141   0.030 -0.6064 -0.9350 -1.0265
23265SOL     OW71235   7.318   3.088   3.116  0.5524  0.0765 -0.3840
23265SOL    HW171236   7.300   3.061   3.205  2.6288  0.8302  0.3186
23265SOL    HW271237   7.307   3.183   3.117  0.2911  0.0590 -1.0122
23266SOL     OW71238   6.546   7.690   1.754 -0.1640 -0.1362  0.1064
23266SOL    HW171239   6.642   7.698   1.762 -0.0373 -2.0769  1.1151
23266SOL    HW271240   6.533   7.650   1.668 -0.0217 -0.5891  0.2953
23267SOL     OW71241   6.959   0.926   1.867 -0.5857 -0.2119  0.2384
23267SOL    HW171242   6.969   0.881   1.951  0.0884 -1.0910 -0.2937
23267SOL    HW271243   6.959   1.019   1.890  2.7956 -0.2654  0.9776
23268SOL     OW71244   7.718   0.348   1.422 -0.3885  0.0634  0.0881
23268SOL    HW171245   7.641   0.314   1.376 -0.7592  1.4198 -0.3373
23268SOL    HW271246   7.788   0.345   1.357 -0.0360 -1.2572  0.5026
23269SOL     OW71247   6.640   6.985   0.569 -0.5605  0.0796 -0.4079
23269SOL    HW171248   6.578   6.985   0.642  1.0549  0.4516  1.0075
23269SOL    HW271249   6.586   6.965   0.492 -2.3719  0.0882  0.8078
23270SOL     OW71250   4.700   0.662  12.499  0.5082 -0.5528  0.3418
23270SOL    HW171251   4.706   0.733  12.562 -0.1574  0.3916 -0.6311
23270SOL    HW271252   4.701   0.582  12.552 -2.3992  0.2461  1.7817
23271SOL     OW71253   7.230   7.585   2.798 -0.0390 -0.1932 -0.0198
23271SOL    HW171254   7.199   7.607   2.711 -0.0744 -0.1196  0.0110
23271SOL    HW271255   7.315   7.630   2.805 -0.7634  1.1630  0.5779
23272SOL     OW71256   0.079   7.388   1.082 -0.1231 -0.3812  0.1029
23272SOL    HW171257   0.055   7.414   1.171 -0.2536  0.1991 -0.0983
23272SOL    HW271258   0.021   7.315   1.062 -1.3953  0.6690 -0.1821
23273SOL     OW71259   6.647   0.427   0.878  0.0367 -0.3758 -0.3621
23273SOL    HW171260   6.580   0.484   0.841  0.6734 -0.5433 -1.8240
23273SOL    HW271261   6.683   0.379   0.803  1.6759 -0.4162  0.3962
23274SOL     OW71262   0.362   7.474   1.018  0.6102  0.0425  0.1390
23274SOL    HW171263   0.280   7.432   1.044  1.6662 -1.9660  0.4161
23274SOL    HW271264   0.339   7.566   1.006 -1.6009 -0.4066  0.5264
23275SOL     OW71265   6.086   7.241   1.668  0.4192  0.3095 -0.3850
23275SOL    HW171266   5.995   7.268   1.670  0.2693 -0.1652 -0.6256
23275SOL    HW271267   6.131   7.307   1.615  0.5061  1.3900  0.9910
23276SOL     OW71268   7.353   0.203   0.011 -0.0385  0.1665  0.0545
23276SOL    HW171269   7.306   0.152  -0.055  1.3811 -0.4855 -0.5178
23276SOL    HW271270   7.444   0.203  -0.020  1.1506 -2.0412  3.0831
23277SOL     OW71271   7.880   0.179   2.460 -0.0977 -0.1118 -0.0718
23277SOL    HW171272   7.842   0.266   2.454  0.4624  0.0787 -1.4170
23277SOL    HW271273   7.916   0.174   2.548 -0.8983  0.6815  0.3151
23278SOL     OW71274   0.139   7.932   0.573  0.4184  0.1267  0.1290
23278SOL    HW171275   0.059   7.979   0.551 -0.1759 -1.5247 -1.5361
23278SOL    HW271276   0.109   7.855   0.622  0.8882 -0.8104 -1.0058
23279SOL     OW71277   5.998   7.021  10.297 -0.3734 -0.0121 -0.0457
23279SOL    HW171278   6.039   6.942  10.261  1.1376  0.2457  1.0047
23279SOL    HW271279   6.067   7.088  10.292 -0.8265  0.5859  1.2976
23280SOL     OW71280   7.752   7.562  12.415  0.0722 -0.5371 -0.0680
23280SOL    HW171281   7.834   7.608  12.432  0.6248 -1.8247  0.9123
23280SOL    HW271282   7.684   7.620  12.451  0.8224 -0.8501  1.9795
23281SOL     OW71283   6.857   1.642   1.803  0.5342  0.5904  0.0246
23281SOL    HW171284   6.829   1.628   1.713  0.7651 -1.0284  0.1725
23281SOL    HW271285   6.791   1.701   1.840  1.1097  2.3090 -1.5219
23282SOL     OW71286   5.862   1.706   1.434  0.4757 -0.7995  0.0199
23282SOL    HW171287   5.793   1.743   1.488  1.7478 -0.8952  1.8145
23282SOL    HW271288   5.931   1.682   1.496  1.6230 -1.8250 -1.5647
23283SOL     OW71289   6.561   0.808   3.930  0.5178 -0.0794  0.2550
23283SOL    HW171290   6.498   0.877   3.951  1.3168  1.1914 -1.3540
23283SOL    HW271291   6.613   0.799   4.010 -0.3317  0.3662  0.8731
23284SOL     OW71292   5.139   0.736   2.634 -0.6112 -0.1577  0.3989
23284SOL    HW171293   5.103   0.813   2.678 -1.0950 -0.1327 -0.0274
23284SOL    HW271294   5.177   0.770   2.553 -0.2504 -0.2814  0.5152
23285SOL     OW71295   6.088   1.065   2.286 -0.6828 -0.1703 -0.0637
23285SOL    HW171296   6.018   1.107   2.236 -1.1417 -0.5722  0.2281
23285SOL    HW271297   6.161   1.060   2.225 -1.2135 -0.5883 -0.6802
23286SOL     OW71298   7.861   0.506   4.234 -0.5755 -0.1837 -0.3863
23286SOL    HW171299   7.786   0.447   4.226 -0.4047 -0.3139 -1.0986
23286SOL    HW271300   7.826   0.593   4.212 -1.0438  0.1745  1.5674
23287SOL     OW71301   4.498   0.508   1.072  0.0609  0.7103 -0.4422
23287SOL    HW171302   4.510   0.434   1.013 -0.6512  0.0704  0.1971
23287SOL    HW271303   4.585   0.548   1.078  0.0592  1.0607 -2.2489
23288SOL     OW71304   5.839   7.610   2.527 -0.4457  0.4577 -0.1410
23288SOL    HW171305   5.897   7.622   2.603 -0.5224 -1.6086  0.3030
23288SOL    HW271306   5.891   7.638   2.452  0.9052 -0.6627  0.3328
23289SOL     OW71307   5.517   7.493   4.367  0.0705 -0.6917 -0.4109
23289SOL    HW171308   5.430   7.471   4.334 -0.7988 -1.9900  2.3803
23289SOL    HW271309   5.571   7.417   4.345 -0.0338 -0.7768 -0.3724
23290SOL     OW71310   1.450   2.059   3.705  0.4638 -0.4546  0.1092
23290SOL    HW171311   1.386   2.125   3.678  0.3022 -1.0091 -0.9564
23290SOL    HW271312   1.418   2.027   3.789 -0.8646 -0.9522 -0.5573
23291SOL     OW71313   0.195   0.652   2.635  0.1511  0.7377 -1.0341
23291SOL    HW171314   0.197   0.622   2.544  2.1722 -0.1564 -0.7454
23291SOL    HW271315   0.102   0.662   2.655 -0.3911 -0.4817 -2.7292
23292SOL     OW71316   6.530   0.976   4.828 -0.9158 -0.4873 -0.3897
23292SOL    HW171317   6.593   0.958   4.898 -1.6336 -2.2380 -0.1434
23292SOL    HW271318   6.444   0.962   4.868 -1.5635  2.0416 -0.6686
23293SOL     OW71319   0.230   6.978   3.742  0.6922 -0.2655  0.8014
23293SOL    HW171320   0.326   6.977   3.741  0.7167  0.5086  1.5673
23293SOL    HW271321   0.206   7.068   3.720  0.0988 -0.7449 -0.6592
23294SOL     OW71322   6.098   7.407   1.922  0.0534  0.0934  0.2643
23294SOL    HW171323   6.077   7.363   1.840  1.1441  2.0837 -1.1852
23294SOL    HW271324   6.194   7.405   1.927  0.0088 -0.0614  1.5564
23295SOL     OW71325   0.093   2.418   4.461  0.4716 -0.2153 -0.2662
23295SOL    HW171326   0.144   2.441   4.383  0.4640 -1.8065 -0.7811
23295SOL    HW271327   0.159   2.399   4.528  0.5084 -0.2755 -0.3198
23296SOL     OW71328   6.909   7.944   2.294  0.1237 -0.3159  0.1868
23296SOL    HW171329   6.845   7.901   2.351  2.1485 -1.8427  1.4306
23296SOL    HW271330   6.886   8.037   2.298 -1.2876 -0.6854  1.5212
23297SOL     OW71331   6.883   7.688   3.012 -0.2895  0.3708  0.0171
23297SOL    HW171332   6.921   7.767   2.974  0.6173 -0.1369 -0.1574
23297SOL    HW271333   6.829   7.652   2.941  0.6376 -0.0603 -0.4834
23298SOL     OW71334   6.622   0.224   2.100 -0.0674  0.6174  0.4476
23298SOL    HW171335   6.530   0.209   2.078 -0.2129 -0.7387  1.8339
23298SOL    HW271336   6.671   0.187   2.026 -0.6138 -0.1935  0.4806
23299SOL     OW71337   0.287   7.227   3.941  0.5995 -0.2256  0.3344
23299SOL    HW171338   0.233   7.230   3.863  0.3598 -0.4729  0.4892
23299SOL    HW271339   0.372   7.196   3.911  0.4159 -0.6224  0.2230
23300SOL     OW71340   6.963   7.332   2.839  0.3832 -0.2304 -0.9667
23300SOL    HW171341   7.030   7.264   2.854 -0.1250 -0.6074 -0.4052
23300SOL    HW271342   6.963   7.384   2.919  0.8903  0.5548 -1.4621
23301SOL     OW71343   7.225   0.067   3.856 -0.1550 -0.0692  1.2991
23301SOL    HW171344   7.225   0.136   3.789 -0.5385 -0.8817  0.4412
23301SOL    HW271345   7.172   0.103   3.927  0.2675  0.8157  1.1848
23302SOL     OW71346   6.914   1.914   5.443 -0.1617  0.5308 -0.1330
23302SOL    HW171347   6.919   1.896   5.537 -0.4092  2.6352  0.3333
23302SOL    HW271348   6.967   1.994   5.431  0.9693 -0.4301 -2.0236
23303SOL     OW71349   6.342   1.304   1.895  0.0695  0.1804  0.0596
23303SOL    HW171350   6.342   1.218   1.938 -0.4126 -0.2511 -0.7666
23303SOL    HW271351   6.286   1.358   1.950  1.4861  0.3963  1.3607
23304SOL     OW71352   5.436   7.728   1.990 -0.2138  0.7699 -0.2095
23304SOL    HW171353   5.384   7.788   1.936 -0.4087 -0.1376 -1.0643
23304SOL    HW271354   5.460   7.780   2.067  0.6590  2.3115 -1.4719
23305SOL     OW71355   0.405   6.713   1.806 -0.2298  0.3900 -0.4393
23305SOL    HW171356   0.426   6.788   1.750 -0.1545  1.9064  1.5002
23305SOL    HW271357   0.427   6.743   1.894 -0.1374 -1.9746  0.3925
23306SOL     OW71358   5.403   0.476   3.899  0.6059  0.3055  0.6410
23306SOL    HW171359   5.480   0.421   3.911  0.8095  0.3850 -0.2294
23306SOL    HW271360   5.340   0.420   3.854 -0.2015 -0.0377  2.1077
23307SOL     OW71361   6.099   0.533   3.499  0.6495  0.5673  0.2764
23307SOL    HW171362   6.112   0.626   3.480 -1.3593  0.6612 -1.0608
23307SOL    HW271363   6.042   0.532   3.576 -1.1220  0.5675 -0.9760
23308SOL     OW71364   7.254   1.367   4.558 -0.4998 -0.5864 -0.0265
23308SOL    HW171365   7.209   1.445   4.592 -0.4786 -0.8671  0.6504
23308SOL    HW271366   7.346   1.393   4.554 -0.5812 -0.3500 -0.4558
23309SOL     OW71367   7.162   0.446   3.924  0.4590  0.3007  0.7463
23309SOL    HW171368   7.111   0.527   3.934 -2.7650 -1.4900  0.1706
23309SOL    HW271369   7.169   0.435   3.829  1.0849  0.0103  0.8262
23310SOL     OW71370   6.236   7.048   1.785  0.4264 -0.1924 -0.2318
23310SOL    HW171371   6.197   7.128   1.749 -0.1216 -0.0802  0.5634
23310SOL    HW271372   6.309   7.080   1.839  1.2833 -0.3613 -1.2603
23311SOL     OW71373   7.603   1.441   3.275  0.0915  0.2371 -0.5170
23311SOL    HW171374   7.669   1.493   3.320 -1.0370  0.2785  1.1767
23311SOL    HW271375   7.527   1.500   3.266 -0.8245 -0.7594  0.4579
23312SOL     OW71376   0.283   2.031   3.574  0.2842 -0.2821  0.2342
23312SOL    HW171377   0.255   1.940   3.567 -0.9799 -0.0480  1.6681
23312SOL    HW271378   0.234   2.065   3.649  1.9075  1.1414  0.7058
23313SOL     OW71379   6.533   1.563   2.951  0.2049 -0.2154  0.0315
23313SOL    HW171380   6.455   1.590   3.000 -0.1923 -1.0302 -0.1371
23313SOL    HW271381   6.599   1.628   2.974  0.1148 -0.7429  1.8903
23314SOL     OW71382   6.959   0.630   3.907 -0.5685 -0.4337 -0.6528
23314SOL    HW171383   6.880   0.607   3.858 -0.5553  0.5620 -1.1711
23314SOL    HW271384   6.974   0.722   3.886  0.5605 -0.5262 -0.3174
23315SOL     OW71385   6.165   7.107   3.973  0.2609  0.1007 -0.1525
23315SOL    HW171386   6.254   7.081   3.948 -0.6493 -2.1670 -1.2625
23315SOL    HW271387   6.145   7.183   3.918  1.2431  0.1923 -0.4009
23316SOL     OW71388   6.596   0.466   4.085 -0.5963  0.5588  0.7867
23316SOL    HW171389   6.614   0.559   4.075 -0.4657  0.3410 -1.5230
23316SOL    HW271390   6.501   0.459   4.073 -0.2262  0.0799 -2.9803
23317SOL     OW71391   6.770   1.464   1.481  0.7862  0.4717  0.0768
23317SOL    HW171392   6.807   1.551   1.472  0.5925  0.7443  1.6239
23317SOL    HW271393   6.684   1.478   1.520 -0.3758 -0.2516 -2.0950
23318SOL     OW71394   7.595   0.410   4.083  0.3866 -0.2544 -0.1656
23318SOL    HW171395   7.612   0.332   4.136 -0.4988 -1.6303 -1.8173
23318SOL    HW271396   7.508   0.439   4.111  1.0734  0.7281  1.0770
23319SOL     OW71397   6.787   7.664   0.810 -0.4173  0.1086  0.3602
23319SOL    HW171398   6.768   7.579   0.770 -1.2590  1.3369 -2.0969
23319SOL    HW271399   6.882   7.671   0.809 -0.3976 -0.0800 -1.1570
23320SOL     OW71400   0.401   0.488   2.757  0.1050  0.1364  0.8052
23320SOL    HW171401   0.335   0.506   2.690 -0.1444  2.0467  1.5084
23320SOL    HW271402   0.359   0.513   2.839  0.5716 -1.7394  1.6617
23321SOL     OW71403   0.062   0.468   3.549 -0.0829 -0.3257  0.2928
23321SOL    HW171404   0.096   0.512   3.470 -1.8841 -0.4123 -0.5830
23321SOL    HW271405   0.114   0.388   3.556  0.1261 -0.3012 -0.7877
23322SOL     OW71406   5.208   0.582   2.283  0.1882 -0.2020  0.1297
23322SOL    HW171407   5.280   0.542   2.333 -0.9774 -1.1230  1.1593
23322SOL    HW271408   5.204   0.672   2.314  0.2299 -0.4458  0.8626
23323SOL     OW71409   6.692   0.471   5.527 -0.3438  1.1696 -0.4198
23323SOL    HW171410   6.637   0.550   5.531 -0.9706  0.7099  0.8382
23323SOL    HW271411   6.639   0.408   5.478 -1.0809  0.6618  0.9639
23324SOL     OW71412   7.539   0.239   3.075 -0.5983 -0.2282  0.0925
23324SOL    HW171413   7.495   0.324   3.074 -0.0943  0.0352 -0.3923
23324SOL    HW271414   7.631   0.260   3.062 -0.3594 -0.7925  0.8517
23325SOL     OW71415   5.447   1.572   2.928 -0.3182 -0.3803 -0.6929
23325SOL    HW171416   5.425   1.635   2.859 -0.1375 -0.3192 -0.6939
23325SOL    HW271417   5.368   1.519   2.938 -0.4747 -0.1435 -0.6802
23326SOL     OW71418   7.087   0.908   4.703 -0.6258  0.1228  0.1114
23326SOL    HW171419   7.101   1.002   4.689 -1.3534 -0.0897 -2.5943
23326SOL    HW271420   7.035   0.880   4.627 -1.3296 -2.2836  1.3711
23327SOL     OW71421   6.403   1.705   2.715  0.3712 -0.5780  0.3389
23327SOL    HW171422   6.360   1.695   2.630 -2.8959 -2.5750  2.0154
23327SOL    HW271423   6.454   1.625   2.726  2.2864  0.4752 -0.3858
23328SOL     OW71424   7.777   0.358   3.015  0.5276  0.2263  0.1555
23328SOL    HW171425   7.799   0.414   2.940  2.6356  0.6317  1.0231
23328SOL    HW271426   7.779   0.417   3.090 -1.9262 -0.1074  0.5805
23329SOL     OW71427   6.823   7.849   3.825  0.0106 -0.3828  0.6791
23329SOL    HW171428   6.902   7.800   3.849  0.1729 -0.6957 -0.4677
23329SOL    HW271429   6.840   7.881   3.737  0.8382  3.6143  2.0618
23330SOL     OW71430   7.045   0.953   3.187 -0.5009 -0.3688  0.0835
23330SOL    HW171431   7.026   0.965   3.094 -1.4889  0.3219  0.3586
23330SOL    HW271432   7.138   0.971   3.195 -0.5715  0.4014 -0.6542
23331SOL     OW71433   7.245   0.440   5.243  0.3334  0.0640 -0.6203
23331SOL    HW171434   7.177   0.498   5.208 -0.6577 -1.2893 -1.0210
23331SOL    HW271435   7.238   0.360   5.190  1.6884 -0.4154 -0.1096
23332SOL     OW71436   7.855   6.499   1.889 -0.0158  0.3579  0.1152
23332SOL    HW171437   7.774   6.512   1.839  0.3988  1.7891 -0.2145
23332SOL    HW271438   7.911   6.447   1.832 -0.4631 -0.1268  0.1066
23333SOL     OW71439   0.456   7.497   3.788  0.1814 -0.0806  0.1343
23333SOL    HW171440   0.471   7.466   3.878 -0.7470  0.5050  0.5068
23333SOL    HW271441   0.413   7.582   3.799  1.7629  0.9096 -0.8668
23334SOL     OW71442   0.938   6.968   3.503  0.1690  0.1645  0.2109
23334SOL    HW171443   0.960   6.893   3.558  0.1020 -1.0019 -1.2885
23334SOL    HW271444   0.874   6.933   3.440 -2.1748  2.1983  1.2862
23335SOL     OW71445   5.995   5.341   3.227 -0.2606 -0.3546  0.4313
23335SOL    HW171446   5.915   5.343   3.173  0.6112  0.7438 -0.9114
23335SOL    HW271447   5.993   5.423   3.275 -1.1262 -1.4171  2.3009
23336SOL     OW71448   5.673   0.908   3.283 -0.2633 -0.1451 -0.1573
23336SOL    HW171449   5.726   0.828   3.281  0.1020  0.1201 -1.5964
23336SOL    HW271450   5.701   0.952   3.363  0.8922 -0.5439 -0.3212
23337SOL     OW71451   5.954   0.326   1.844  0.0568  0.5416  0.4835
23337SOL    HW171452   5.954   0.371   1.928 -0.0008  0.6024  0.4509
23337SOL    HW271453   5.983   0.393   1.781 -0.2454  0.5961  0.4009
23338SOL     OW71454   0.623   0.948   4.699 -0.2402 -0.4032 -0.0934
23338SOL    HW171455   0.627   0.863   4.744  1.5159 -0.5897 -0.5536
23338SOL    HW271456   0.534   0.979   4.716 -0.7294 -2.0538  0.5916
23339SOL     OW71457   0.340   7.998   1.426  0.2128  0.1309 -0.8308
23339SOL    HW171458   0.379   8.085   1.437 -0.2410  0.1316  1.3373
23339SOL    HW271459   0.356   7.955   1.510 -0.7187 -1.4173 -1.4160
23340SOL     OW71460   5.299   0.303   1.948  0.0605 -0.0790  0.0836
23340SOL    HW171461   5.350   0.225   1.970  0.4648 -0.2500 -1.3287
23340SOL    HW271462   5.319   0.319   1.856 -0.5947  1.2683  0.1545
23341SOL     OW71463   6.001   5.656   4.828  0.4429  0.3622  0.3895
23341SOL    HW171464   6.017   5.612   4.911 -0.6614 -0.1304  0.3583
23341SOL    HW271465   6.033   5.745   4.842  1.2373  0.0003  0.9815
23342SOL     OW71466   5.653   5.977   2.471  0.4732  0.1681 -0.1091
23342SOL    HW171467   5.568   5.944   2.501  1.0117 -1.1064  0.1000
23342SOL    HW271468   5.682   6.036   2.540  0.6723 -0.9976  0.8336
23343SOL     OW71469   0.661   0.422   3.554  0.4781  0.1975 -0.2135
23343SOL    HW171470   0.622   0.339   3.524  0.5284 -0.3803  1.2378
23343SOL    HW271471   0.628   0.487   3.493 -0.4045 -0.7325 -0.7640
23344SOL     OW71472   7.933   7.881   3.606  0.1359 -0.0043 -0.2810
23344SOL    HW171473   7.901   7.882   3.697  0.7966  0.4515 -0.0482
23344SOL    HW271474   7.953   7.789   3.588 -0.9968 -0.2579 -0.3282
23345SOL     OW71475   6.210   0.013   3.001 -0.0467 -0.0686 -0.6162
23345SOL    HW171476   6.220   0.068   2.924 -0.7748 -0.9019 -1.3370
23345SOL    HW271477   6.130  -0.037   2.985  0.3647 -1.0411  0.1843
23346SOL     OW71478   6.902   0.578   3.466 -0.0441 -0.2255 -0.0332
23346SOL    HW171479   6.809   0.602   3.471 -0.2764 -0.9683 -0.5403
23346SOL    HW271480   6.944   0.653   3.425 -0.4571  0.0234 -0.0128
23347SOL     OW71481   5.854   0.066   1.554 -0.2221 -0.0266 -0.4051
23347SOL    HW171482   5.766   0.064   1.593 -0.9755  2.0948 -1.8266
23347SOL    HW271483   5.913   0.072   1.629 -1.5467  2.5757  0.5708
23348SOL     OW71484   1.070   7.848   4.199  0.2894 -0.0000 -0.3802
23348SOL    HW171485   1.095   7.841   4.291  0.6875  2.2389 -0.2649
23348SOL    HW271486   1.151   7.867   4.153  0.3091 -2.2722 -1.4284
23349SOL     OW71487   5.939   7.894   3.613 -0.3560  0.3199  0.2162
23349SOL    HW171488   5.930   7.920   3.705  1.4056  1.1598  0.1852
23349SOL    HW271489   5.996   7.817   3.616  0.3760  0.8384 -0.2254
23350SOL     OW71490   4.908   0.446   2.383  0.1055  0.2239  0.3511
23350SOL    HW171491   4.966   0.470   2.311  1.8832  0.3184  1.7610
23350SOL    HW271492   4.832   0.503   2.372  1.1183  1.4782 -0.4446
23351SOL     OW71493   6.338   0.232   3.842 -0.1296 -0.2872  0.2466
23351SOL    HW171494   6.329   0.296   3.772  1.2495 -0.3020  0.0218
23351SOL    HW271495   6.360   0.283   3.919  0.6555 -0.4425  0.1368
23352SOL     OW71496   5.702   5.797   5.290 -0.2191 -0.8026  0.2048
23352SOL    HW171497   5.692   5.732   5.360  2.2589 -1.3698  0.1171
23352SOL    HW271498   5.715   5.880   5.336 -1.5395 -0.6417  0.3341
23353SOL     OW71499   6.949   0.317   5.420  0.0219  0.1997  0.0926
23353SOL    HW171500   6.929   0.282   5.333  2.0646 -0.2030 -0.2498
23353SOL    HW271501   6.872   0.370   5.442 -1.8642 -2.0493 -0.6397
23354SOL     OW71502   5.665   0.668   6.726  0.1065  0.2418 -0.1411
23354SOL    HW171503   5.576   0.634   6.720  0.1483 -0.0148  0.6352
23354SOL    HW271504   5.672   0.705   6.814  0.6598  0.5684 -0.3141
23355SOL     OW71505   4.384   7.790   4.959  0.1205  0.3865  0.2280
23355SOL    HW171506   4.383   7.767   4.867 -0.3980 -0.1139  0.3517
23355SOL    HW271507   4.468   7.756   4.991 -0.1335 -0.3434  0.1538
23356SOL     OW71508   7.351   6.980   5.757 -0.3130 -0.1550 -0.3167
23356SOL    HW171509   7.422   6.956   5.816  0.1091 -1.4085 -1.2986
23356SOL    HW271510   7.321   7.066   5.789  0.7925 -0.1866  0.8651
23357SOL     OW71511   5.873   7.237   4.217 -0.2905  0.0099 -0.4358
23357SOL    HW171512   5.850   7.243   4.124 -1.5328 -0.3309 -0.1644
23357SOL    HW271513   5.936   7.308   4.231 -2.3393  2.0121 -0.8895
23358SOL     OW71514   7.960   7.722   4.855 -0.2406 -0.4991  0.5297
23358SOL    HW171515   8.047   7.727   4.815 -0.0408 -0.3327  0.9797
23358SOL    HW271516   7.925   7.638   4.825  0.6783 -1.2794  1.5345
23359SOL     OW71517   5.664   7.538   5.265 -0.3530 -0.2712  0.3858
23359SOL    HW171518   5.715   7.470   5.308 -0.3982 -1.2431 -1.0059
23359SOL    HW271519   5.634   7.497   5.183  2.4473  2.3779 -2.2559
23360SOL     OW71520   7.559   0.574   4.793  0.0654  0.0791  0.7069
23360SOL    HW171521   7.515   0.502   4.841  2.1529 -1.1148  0.9288
23360SOL    HW271522   7.607   0.621   4.861 -0.3961  1.0346  0.3826
23361SOL     OW71523   7.116   7.610   5.777 -0.8471  0.2759 -0.4490
23361SOL    HW171524   7.189   7.640   5.831  0.2149  0.6525 -2.0096
23361SOL    HW271525   7.135   7.519   5.759 -0.8797  0.3176 -0.6932
23362SOL     OW71526   6.303   7.730   4.430  0.2333 -0.0118  0.7231
23362SOL    HW171527   6.357   7.739   4.351 -0.3931  2.9311  0.5062
23362SOL    HW271528   6.347   7.784   4.495 -0.4630 -0.6120  1.7097
23363SOL     OW71529   0.161   2.030   5.594 -0.3059  0.8533 -0.0423
23363SOL    HW171530   0.218   2.081   5.652 -0.4617  1.3460 -0.3214
23363SOL    HW271531   0.086   2.087   5.577 -0.8897  0.2096  0.3222
23364SOL     OW71532   5.772   6.654   6.736  0.6377  0.1896 -0.1717
23364SOL    HW171533   5.723   6.726   6.696  0.5981 -0.4164 -1.2805
23364SOL    HW271534   5.862   6.686   6.739  0.6440  0.2510 -0.7809
23365SOL     OW71535   4.137   6.710   4.986 -0.1519 -0.3629  0.0710
23365SOL    HW171536   4.049   6.727   4.953 -0.0645  1.6673  0.7854
23365SOL    HW271537   4.195   6.757   4.927  0.3897 -0.8547  0.1967
23366SOL     OW71538   7.768   0.721   4.577  0.1387  0.0265 -0.2491
23366SOL    HW171539   7.698   0.679   4.527 -0.4996  0.3230  0.3858
23366SOL    HW271540   7.737   0.721   4.667  0.9828  0.1144  0.0520
23367SOL     OW71541   1.316   6.026   4.828  0.2818 -0.3509  0.0786
23367SOL    HW171542   1.301   6.068   4.744 -1.3687  1.5113  1.2021
23367SOL    HW271543   1.385   6.078   4.869 -1.3876  1.0628  1.2554
23368SOL     OW71544   6.344   1.118   5.203 -0.2678 -0.0855  0.1379
23368SOL    HW171545   6.391   1.165   5.133  1.2080  0.5047  1.4519
23368SOL    HW271546   6.257   1.159   5.205 -0.0454  0.4628 -0.8049
23369SOL     OW71547   7.075   7.039   5.876  0.0088 -0.0673 -0.0633
23369SOL    HW171548   6.984   7.065   5.892 -0.8234 -2.6761 -0.1387
23369SOL    HW271549   7.110   7.109   5.820 -1.2717  2.0510  1.6259
23370SOL     OW71550   7.964   0.379   7.151 -0.3078 -0.0094  0.1438
23370SOL    HW171551   7.940   0.433   7.076  0.0989 -1.7358 -1.2913
23370SOL    HW271552   8.055   0.355   7.135 -0.4305 -0.9739  0.8321
23371SOL     OW71553   6.217   0.460   2.429  0.2065 -0.1899 -0.0935
23371SOL    HW171554   6.247   0.522   2.363 -0.0928  0.8245  0.6942
23371SOL    HW271555   6.294   0.409   2.452  0.5879  0.2674 -0.3548
23372SOL     OW71556   5.657   6.765   3.581 -0.5731  0.7677 -0.0372
23372SOL    HW171557   5.658   6.854   3.616  0.7573 -0.0055  2.0790
23372SOL    HW271558   5.691   6.711   3.652  1.2654 -1.0983 -2.1723
23373SOL     OW71559   0.493   7.194   4.212  0.2532 -0.2873  0.4250
23373SOL    HW171560   0.398   7.193   4.201  0.1203 -1.2449  1.4637
23373SOL    HW271561   0.506   7.220   4.303  1.0844  1.7696 -0.2169
23374SOL     OW71562   7.580   6.866   4.799 -0.6461  0.6109 -0.0492
23374SOL    HW171563   7.615   6.951   4.828 -0.0949  0.0239  1.0926
23374SOL    HW271564   7.498   6.857   4.848 -0.6379  0.4283 -0.0695
23375SOL     OW71565   7.021   7.030   4.597 -0.3854  0.0925  0.0770
23375SOL    HW171566   7.051   6.978   4.672  0.0944  0.9699  0.5078
23375SOL    HW271567   6.975   7.105   4.636  0.1501  0.7294 -0.4826
23376SOL     OW71568   7.454   6.361   5.555 -0.4927 -0.5114  0.2667
23376SOL    HW171569   7.421   6.358   5.645  0.9590  0.3952  0.8651
23376SOL    HW271570   7.537   6.409   5.561 -0.1504 -0.8026 -1.4969
23377SOL     OW71571   7.476   0.092   4.761  0.2177  0.9647  0.5869
23377SOL    HW171572   7.550   0.075   4.703 -0.0843 -0.9576  0.7066
23377SOL    HW271573   7.427   0.009   4.763 -0.1662  1.1793  3.0523
23378SOL     OW71574   5.599   7.641   4.918  0.0050 -0.1231 -0.2588
23378SOL    HW171575   5.649   7.702   4.973  0.2665 -1.3715  0.9600
23378SOL    HW271576   5.508   7.654   4.943  0.1381 -0.8017  0.6340
23379SOL     OW71577   1.071   7.225   4.915  0.9090  0.4530 -0.0211
23379SOL    HW171578   1.034   7.265   4.836 -0.7954 -1.6492 -0.4015
23379SOL    HW271579   1.088   7.134   4.889 -1.6006 -0.8816  2.4875
23380SOL     OW71580   7.834   0.210   5.319  0.0595 -0.1543  0.7027
23380SOL    HW171581   7.763   0.242   5.264 -0.0099  0.6855  1.2599
23380SOL    HW271582   7.913   0.219   5.265 -0.0677  0.2366  0.5826
23381SOL     OW71583   6.852   0.064   5.526  0.4177  0.3753  0.9103
23381SOL    HW171584   6.795   0.001   5.569 -1.6786  2.0361  0.7060
23381SOL    HW271585   6.826   0.149   5.560 -0.5508  1.6904 -2.6230
23382SOL     OW71586   6.641   7.980   6.690 -0.9122  0.6466  0.0668
23382SOL    HW171587   6.615   7.960   6.780  0.1785  1.5402  0.6136
23382SOL    HW271588   6.679   8.068   6.696 -1.0621  0.8172 -1.3187
23383SOL     OW71589   4.077   6.981   6.315 -0.1345  0.2925 -0.1550
23383SOL    HW171590   4.036   6.917   6.257  0.1841  0.5654 -0.6907
23383SOL    HW271591   4.171   6.973   6.297 -0.1221  1.2117 -0.5458
23384SOL     OW71592   6.303   7.445   4.499 -0.0142 -0.1134 -0.1650
23384SOL    HW171593   6.351   7.505   4.556 -0.7619  0.5182 -0.1852
23384SOL    HW271594   6.257   7.502   4.438 -0.5295 -0.7207 -0.3466
23385SOL     OW71595   6.074   0.574   5.193  0.3267 -0.2312 -0.5459
23385SOL    HW171596   6.167   0.567   5.172  0.2971  1.3453 -1.3805
23385SOL    HW271597   6.071   0.569   5.289  1.0591 -2.0303 -0.5794
23386SOL     OW71598   4.752   7.169   5.196 -0.4079 -0.0768 -0.0632
23386SOL    HW171599   4.770   7.140   5.286  0.4974  1.6672  0.3584
23386SOL    HW271600   4.660   7.196   5.198 -0.5422 -0.5379  0.1882
23387SOL     OW71601   5.225   2.002   2.987 -0.0719  0.1301 -0.6219
23387SOL    HW171602   5.208   2.017   3.080  0.7940 -2.6924  0.0924
23387SOL    HW271603   5.143   1.968   2.952 -0.4482  1.3493 -0.9676
23388SOL     OW71604   0.122   1.329   5.524 -0.4369 -0.2121  0.3265
23388SOL    HW171605   0.041   1.375   5.547 -0.4683 -0.2502  0.2950
23388SOL    HW271606   0.167   1.388   5.464 -1.0434 -0.7196 -0.6588
23389SOL     OW71607   6.546   1.109   3.504 -0.0693  0.1858  0.2378
23389SOL    HW171608   6.561   1.204   3.509  0.3151  0.0758  2.3334
23389SOL    HW271609   6.614   1.072   3.560  1.3383 -1.5606 -2.4544
23390SOL     OW71610   6.045   7.681   4.335 -0.6360  0.0816 -0.3902
23390SOL    HW171611   6.133   7.697   4.370 -0.5427  0.4361 -0.7785
23390SOL    HW271612   5.995   7.758   4.361 -1.8540 -1.6504  2.9994
23391SOL     OW71613   7.779   2.125   4.994 -0.2552 -0.1122  0.1336
23391SOL    HW171614   7.782   2.056   4.929  1.3018  0.8977 -0.9379
23391SOL    HW271615   7.867   2.164   4.993 -0.5682  0.7927  1.9005
23392SOL     OW71616   0.220   6.615   5.659 -0.1486  0.2428  0.0826
23392SOL    HW171617   0.296   6.585   5.609  1.7072  1.2282  2.1644
23392SOL    HW271618   0.222   6.710   5.651 -1.2029  0.2883  0.1582
23393SOL     OW71619   4.789   1.093   2.738 -0.1940 -0.3906  0.5316
23393SOL    HW171620   4.749   1.079   2.652 -0.2632 -0.1979  0.5312
23393SOL    HW271621   4.747   1.172   2.771 -0.3810 -0.6283  0.8717
23394SOL     OW71622   5.791   1.305   5.169 -0.1296  0.4699  0.0499
23394SOL    HW171623   5.761   1.289   5.259 -0.5989  1.9782  0.1895
23394SOL    HW271624   5.885   1.284   5.171 -0.4216 -0.9364  0.4871
23395SOL     OW71625   0.377   7.717   3.936  0.6167  0.2074 -0.3059
23395SOL    HW171626   0.298   7.736   3.885  0.3150  1.3287  0.5351
23395SOL    HW271627   0.350   7.651   3.999  0.5923 -0.0794 -0.6167
23396SOL     OW71628   7.148   7.363   8.104 -0.2901  0.3010  0.0484
23396SOL    HW171629   7.114   7.452   8.095  2.0378  1.4972  1.8337
23396SOL    HW271630   7.212   7.355   8.033 -1.4188 -0.4889 -0.9160
23397SOL     OW71631   5.872   0.087   5.088  0.2056 -0.3494 -0.2655
23397SOL    HW171632   5.840   0.144   5.158  0.4413 -2.3320  1.5544
23397SOL    HW271633   5.890   0.003   5.132  1.7170 -1.2435 -2.4498
23398SOL     OW71634   6.455   6.621   5.065 -0.0461  0.3100  0.0256
23398SOL    HW171635   6.383   6.678   5.035  0.8871  1.5225  0.0240
23398SOL    HW271636   6.532   6.678   5.063  0.9411 -1.0045 -0.0789
23399SOL     OW71637   1.002   7.857   6.033  0.1376 -0.6004 -0.1744
23399SOL    HW171638   1.079   7.907   6.005 -1.0501 -0.3294 -3.4996
23399SOL    HW271639   0.930   7.920   6.031 -0.7074 -1.5391 -0.5128
23400SOL     OW71640   3.548   0.332   5.646  0.0098  0.3494  0.0304
23400SOL    HW171641   3.460   0.294   5.651  0.3340 -0.5277 -0.6239
23400SOL    HW271642   3.554   0.365   5.556  0.6302 -0.3376 -0.1938
23401SOL     OW71643   7.791   6.593   4.566 -0.3656  0.0812  0.0009
23401SOL    HW171644   7.737   6.581   4.488  0.6141 -0.9973 -0.5486
23401SOL    HW271645   7.821   6.505   4.588 -0.7383  0.3423  1.7053
23402SOL     OW71646   0.256   0.453   5.672 -0.0514 -0.3172  0.2880
23402SOL    HW171647   0.301   0.395   5.734  3.9987  0.5150 -1.5370
23402SOL    HW271648   0.201   0.396   5.619 -1.5165 -1.3888  2.7777
23403SOL     OW71649   0.910   0.922   5.886 -0.2480  0.4197 -0.1075
23403SOL    HW171650   0.869   1.007   5.871 -0.9691  0.2945  1.0162
23403SOL    HW271651   0.962   0.935   5.965 -0.5580 -0.2362  0.2138
23404SOL     OW71652   6.415   0.605   2.668  0.2255 -0.4427 -0.0575
23404SOL    HW171653   6.454   0.644   2.590 -1.3160  1.5802  0.0969
23404SOL    HW271654   6.347   0.667   2.694 -0.5345 -1.9756  1.8367
23405SOL     OW71655   7.974   0.251   5.822  0.7179  0.6134 -0.0610
23405SOL    HW171656   7.926   0.314   5.876  1.2329  1.6559 -0.7897
23405SOL    HW271657   8.061   0.289   5.813  1.1848 -0.4521 -0.1247
23406SOL     OW71658   0.402   1.547   3.653  0.4170 -0.8113 -0.1247
23406SOL    HW171659   0.495   1.530   3.665  0.2341 -0.8715  1.3536
23406SOL    HW271660   0.361   1.521   3.736 -0.6289  1.2843  0.0877
23407SOL     OW71661   7.212   7.445   5.285  0.1337  0.9123  0.0315
23407SOL    HW171662   7.182   7.398   5.363  1.4449 -0.6240 -0.3257
23407SOL    HW271663   7.287   7.496   5.314 -1.1172  2.6325  0.3552
23408SOL     OW71664   7.387   0.844   5.202 -0.3174 -0.0636 -0.5818
23408SOL    HW171665   7.354   0.914   5.258  0.9606  0.6471 -0.6874
23408SOL    HW271666   7.439   0.889   5.135  1.1506 -1.1600 -0.2163
23409SOL     OW71667   0.384   7.536   5.759  0.5164  0.1513 -0.6591
23409SOL    HW171668   0.367   7.545   5.853  1.9502  0.4051 -0.3919
23409SOL    HW271669   0.301   7.556   5.717 -0.1865 -0.1085  0.5649
23410SOL     OW71670   6.281   0.414   4.494  0.3543  0.2780 -0.4080
23410SOL    HW171671   6.186   0.410   4.493  0.3673 -0.0640 -1.3387
23410SOL    HW271672   6.309   0.325   4.514  0.4711 -0.0992 -2.0364
23411SOL     OW71673   6.755   6.234   7.489 -0.0359  0.2064 -0.0873
23411SOL    HW171674   6.706   6.313   7.513  1.2746  1.4820 -1.4283
23411SOL    HW271675   6.695   6.184   7.434 -0.1462  1.3269 -1.0101
23412SOL     OW71676   7.610   7.102   5.612 -0.0856 -0.0672  0.2786
23412SOL    HW171677   7.568   7.021   5.583 -1.3431  1.1304 -1.4574
23412SOL    HW271678   7.544   7.170   5.598  1.6240  1.5572 -0.3112
23413SOL     OW71679   7.491   7.273   4.695  0.5419 -0.6942  0.1190
23413SOL    HW171680   7.525   7.256   4.783  2.2788 -1.0538 -0.5788
23413SOL    HW271681   7.478   7.186   4.657 -0.7184 -0.5560  0.1676
23414SOL     OW71682   1.752   7.309   5.785 -0.1005  0.0477 -0.3775
23414SOL    HW171683   1.660   7.332   5.799 -0.4406 -0.8252 -1.0774
23414SOL    HW271684   1.799   7.391   5.798 -0.9571  0.4722  0.1572
23415SOL     OW71685   6.926   6.817   4.458 -0.4024 -0.3783  0.4407
23415SOL    HW171686   7.009   6.768   4.453  0.8144  1.6071  0.1012
23415SOL    HW271687   6.939   6.879   4.529 -1.5906  0.0234  0.3326
23416SOL     OW71688   6.461   1.852   5.213  0.1860 -0.3133 -0.6557
23416SOL    HW171689   6.395   1.914   5.243 -0.3710 -0.1862 -2.0705
23416SOL    HW271690   6.412   1.772   5.192  0.7274 -0.8132 -0.0876
23417SOL     OW71691   7.350   7.929   4.560 -0.1625  0.9268 -0.0705
23417SOL    HW171692   7.428   7.966   4.520  0.1397  0.2386 -0.1295
23417SOL    HW271693   7.285   7.928   4.490  0.1382  0.4142 -0.3478
23418SOL     OW71694   7.379   1.102   6.528  0.0153 -0.3310 -0.1950
23418SOL    HW171695   7.323   1.154   6.585  1.2017  1.1012 -0.2682
23418SOL    HW271696   7.326   1.089   6.449  0.5104  3.0483 -1.2478
23419SOL     OW71697   7.178   7.378   4.998 -0.0219  1.0527 -0.0207
23419SOL    HW171698   7.180   7.282   5.006  2.7304  0.7776 -2.2106
23419SOL    HW271699   7.207   7.409   5.083 -2.5360  0.0853  1.2783
23420SOL     OW71700   0.495   1.611   7.110 -0.2661  0.5550  0.1420
23420SOL    HW171701   0.532   1.698   7.127  0.7855  0.2102 -0.2633
23420SOL    HW271702   0.511   1.597   7.016  1.5840 -0.9546  0.6291
23421SOL     OW71703   0.037   6.440   8.171 -0.3859 -0.1809  0.4229
23421SOL    HW171704   0.076   6.353   8.182 -1.7008 -0.5066  3.4029
23421SOL    HW271705  -0.028   6.429   8.101 -0.3103 -1.5073  0.5402
23422SOL     OW71706   6.327   7.317   6.075  0.0216 -0.1227 -0.3607
23422SOL    HW171707   6.261   7.386   6.071  0.2383  0.2972  1.9430
23422SOL    HW271708   6.282   7.239   6.044 -1.6516  0.1098  1.3370
23423SOL     OW71709   7.870   6.857   5.435 -0.2145 -0.5959 -0.1168
23423SOL    HW171710   7.891   6.771   5.397 -0.1719 -1.3776  1.6026
23423SOL    HW271711   7.782   6.846   5.472  0.8369 -0.8040  2.5288
23424SOL     OW71712   5.500   0.295   7.445 -0.3003  0.2082 -0.5535
23424SOL    HW171713   5.474   0.254   7.362  1.4544  0.1360 -1.1193
23424SOL    HW271714   5.468   0.236   7.513 -0.1181 -0.7362 -1.2676
23425SOL     OW71715   6.818   1.102   5.914 -0.3723  0.1503 -0.4568
23425SOL    HW171716   6.794   1.046   5.839 -2.0354  0.7612 -0.4323
23425SOL    HW271717   6.802   1.191   5.883  0.3297  0.5035  0.1672
23426SOL     OW71718   6.417   1.736   7.922  0.3417 -0.4368  0.1738
23426SOL    HW171719   6.409   1.742   7.827  0.6928 -0.5949  0.1300
23426SOL    HW271720   6.464   1.815   7.948 -1.0907  0.3681  0.4004
23427SOL     OW71721   6.984   7.606   8.093  0.1292  0.0496 -0.3529
23427SOL    HW171722   6.900   7.595   8.136 -0.2925 -0.7400 -1.3417
23427SOL    HW271723   7.040   7.648   8.159 -0.7500 -0.3071  0.6352
23428SOL     OW71724   6.112   7.260   7.845  0.2326  0.0246 -0.1495
23428SOL    HW171725   6.098   7.165   7.848 -1.1100  0.1966 -0.2922
23428SOL    HW271726   6.178   7.273   7.777 -0.9771 -0.6781 -1.5130
23429SOL     OW71727   7.504   6.923   5.121  0.2480  0.0298  0.1233
23429SOL    HW171728   7.544   6.838   5.140  0.2337  0.1949  0.9319
23429SOL    HW271729   7.432   6.903   5.062  0.0945 -0.5500  0.5013
23430SOL     OW71730   0.403   4.776   6.863  0.0650  0.1106 -0.2899
23430SOL    HW171731   0.389   4.867   6.840 -0.0555  0.5565  1.4327
23430SOL    HW271732   0.320   4.733   6.844  0.1834  0.2940 -1.2933
23431SOL     OW71733   7.626   0.014   5.171 -0.4899 -0.0442  0.4178
23431SOL    HW171734   7.641  -0.062   5.115 -0.3407  0.0261  0.3609
23431SOL    HW271735   7.634   0.089   5.112 -0.0918  0.0441  0.5802
23432SOL     OW71736   6.625   6.654   7.277 -0.2989 -0.0396 -0.4893
23432SOL    HW171737   6.608   6.607   7.359 -0.8807 -1.1123 -1.2021
23432SOL    HW271738   6.540   6.657   7.234  0.1091  0.0181 -1.2998
23433SOL     OW71739   6.936   7.354   6.151  0.3442 -0.2941  0.0382
23433SOL    HW171740   6.956   7.315   6.236 -0.4172 -0.0575  0.3373
23433SOL    HW271741   6.878   7.291   6.109 -0.4115  0.2356  0.2786
23434SOL     OW71742   6.239   7.789   7.204  0.1221  0.7015  0.2283
23434SOL    HW171743   6.261   7.759   7.116  1.0717 -1.4116  1.1045
23434SOL    HW271744   6.213   7.709   7.250 -0.2218  1.7377  1.9136
23435SOL     OW71745   5.604   0.149   4.034 -0.3189  0.4783  0.0612
23435SOL    HW171746   5.613   0.207   3.959  0.3765  0.1452 -0.1195
23435SOL    HW271747   5.523   0.178   4.077 -0.9048  0.4541 -0.9982
23436SOL     OW71748   7.618   6.875   6.944  0.2014  0.3909 -0.0356
23436SOL    HW171749   7.701   6.901   6.903  0.5183  0.7075  0.7828
23436SOL    HW271750   7.644   6.816   7.015 -0.3216 -0.0111 -0.1758
23437SOL     OW71751   6.353   0.855   7.740 -0.2767  0.3996  0.0386
23437SOL    HW171752   6.287   0.884   7.678 -0.8414  0.7128  0.7727
23437SOL    HW271753   6.436   0.878   7.699 -0.6661  1.7039 -0.0725
23438SOL     OW71754   6.533   6.361   4.996 -0.2283 -0.1983 -0.0107
23438SOL    HW171755   6.499   6.449   5.012 -1.9563 -0.2252 -2.8649
23438SOL    HW271756   6.486   6.306   5.059 -3.6694  0.2005 -1.9832
23439SOL     OW71757   5.298   7.486   7.113 -0.7773  0.2443 -0.1105
23439SOL    HW171758   5.226   7.430   7.086 -0.6071 -0.4768  0.8792
23439SOL    HW271759   5.377   7.432   7.102 -0.1269  1.6075 -2.9151
23440SOL     OW71760   4.984   1.437   5.625 -0.5781 -0.1921  0.0548
23440SOL    HW171761   4.971   1.530   5.646  0.3537 -0.1596  0.5462
23440SOL    HW271762   4.978   1.433   5.530  2.4009  0.9292 -0.2793
23441SOL     OW71763   5.838   5.983   7.525  0.0476 -0.2414  0.1027
23441SOL    HW171764   5.855   5.956   7.615  1.0091 -0.1166 -0.0256
23441SOL    HW271765   5.775   6.055   7.533  1.5336  1.0462  0.8398
23442SOL     OW71766   6.285   7.353   6.663  0.0493  0.2594  0.3977
23442SOL    HW171767   6.284   7.360   6.567 -1.4106 -2.3935  0.1109
23442SOL    HW271768   6.207   7.402   6.691 -0.5962 -0.5238  0.0251
23443SOL     OW71769   0.288   0.629   6.043 -0.3437 -0.1889 -0.0373
23443SOL    HW171770   0.288   0.668   6.130 -1.5784 -0.2048 -0.0071
23443SOL    HW271771   0.229   0.684   5.992 -0.7761 -1.0128 -0.4549
23444SOL     OW71772   5.303   7.664   5.308  0.2362  0.1809 -0.4556
23444SOL    HW171773   5.302   7.570   5.294  2.0465  0.1980 -0.9278
23444SOL    HW271774   5.251   7.677   5.387  0.6731 -1.3001  0.1059
23445SOL     OW71775   7.802   1.529   7.078  0.1145  0.0030  0.1661
23445SOL    HW171776   7.707   1.536   7.089 -0.1728 -1.0078 -1.4521
23445SOL    HW271777   7.814   1.495   6.989  1.9967  0.0437  0.3649
23446SOL     OW71778   7.513   6.401   6.475  0.0392  0.0743  0.2421
23446SOL    HW171779   7.476   6.459   6.542  2.2474  1.7612  0.1250
23446SOL    HW271780   7.437   6.358   6.436 -1.5034  0.9074  2.1394
23447SOL     OW71781   5.423   7.858   6.103 -0.2998  0.0738  0.3559
23447SOL    HW171782   5.418   7.949   6.131 -1.5651 -0.0911  0.7521
23447SOL    HW271783   5.467   7.861   6.019  0.5441  0.9452  0.8135
23448SOL     OW71784   5.390   7.997   6.664  0.2692  0.1841  0.0788
23448SOL    HW171785   5.367   8.026   6.576  0.0445 -1.8435 -0.5646
23448SOL    HW271786   5.473   8.042   6.682  0.2041  0.8020 -1.0542
23449SOL     OW71787   5.925   6.398   6.620 -0.0944  0.2677  0.4738
23449SOL    HW171788   5.915   6.492   6.605 -1.2997  0.4794  2.2751
23449SOL    HW271789   6.018   6.381   6.604 -0.0813  1.5268 -0.9972
23450SOL     OW71790   4.644   7.283   8.270  0.0416  0.1035  0.2740
23450SOL    HW171791   4.617   7.194   8.247 -1.2473  0.9315 -1.7428
23450SOL    HW271792   4.672   7.277   8.361 -0.3279 -2.2925  0.2922
23451SOL     OW71793   6.010   0.533   6.068  0.1514  0.1557  0.2194
23451SOL    HW171794   5.941   0.473   6.096  1.2503 -1.2939 -0.0269
23451SOL    HW271795   6.006   0.532   5.972  0.7686 -0.2816  0.1894
23452SOL     OW71796   6.957   2.014   6.498  0.1912  0.2910 -0.2902
23452SOL    HW171797   6.915   1.997   6.414  2.2377 -1.2150 -1.0809
23452SOL    HW271798   6.949   1.932   6.546 -1.1718  1.2073  1.1350
23453SOL     OW71799   6.917   0.516   5.081 -0.1045  0.3494 -0.0120
23453SOL    HW171800   6.897   0.431   5.118 -1.5848  0.3762 -0.6949
23453SOL    HW271801   6.989   0.499   5.020  1.0426 -0.0140  1.3884
23454SOL     OW71802   7.482   1.383   6.200 -0.2714 -0.1871  0.1538
23454SOL    HW171803   7.488   1.433   6.118 -0.1091  0.7292  0.7004
23454SOL    HW271804   7.429   1.438   6.257 -1.9176 -1.6493  0.0917
23455SOL     OW71805   7.040   1.463   5.936 -0.2736 -0.2137 -0.3082
23455SOL    HW171806   7.047   1.399   6.007  1.1266  1.8486  1.5268
23455SOL    HW271807   7.095   1.427   5.866  0.9484 -0.7602  0.8861
23456SOL     OW71808   5.977   6.389   5.737  0.3417 -0.0301 -0.0007
23456SOL    HW171809   6.042   6.433   5.681  1.3034 -1.6880 -0.2537
23456SOL    HW271810   5.917   6.347   5.675 -1.8867  2.5702  0.1924
23457SOL     OW71811   5.699   7.446   8.298 -0.0561 -0.5705  0.6852
23457SOL    HW171812   5.783   7.491   8.285 -0.0507 -0.3943  1.2858
23457SOL    HW271813   5.712   7.395   8.378 -1.1887  1.0814  1.9974
23458SOL     OW71814   4.649   6.870   7.072  0.2602  0.0822 -0.0663
23458SOL    HW171815   4.610   6.839   6.990  0.4032 -0.0937 -0.0692
23458SOL    HW271816   4.678   6.790   7.116  1.7545  0.2860 -0.6355
23459SOL     OW71817   5.260   7.038   6.886 -0.6010 -0.4637 -0.0063
23459SOL    HW171818   5.244   6.999   6.800  0.2499  0.4903 -0.6367
23459SOL    HW271819   5.355   7.027   6.899 -0.4714  0.6848  0.1296
23460SOL     OW71820   4.368   7.354   6.230  0.8981  0.5774 -0.0690
23460SOL    HW171821   4.302   7.333   6.163  0.8928  1.7454 -0.4509
23460SOL    HW271822   4.443   7.299   6.207  0.4274  0.0058 -0.2547
23461SOL     OW71823   7.659   6.885   3.395  0.2776  0.3823 -0.6767
23461SOL    HW171824   7.633   6.966   3.440 -1.4640 -0.1953 -0.5618
23461SOL    HW271825   7.611   6.887   3.313 -0.9793 -1.2255 -0.0188
23462SOL     OW71826   6.975   1.285   7.078 -0.0643  0.1503 -0.5555
23462SOL    HW171827   7.050   1.305   7.135  0.1170  0.0068 -0.7422
23462SOL    HW271828   6.943   1.201   7.110  0.6897 -0.4524 -1.3270
23463SOL     OW71829   5.569   7.856   5.898 -0.4548  0.0623 -0.5095
23463SOL    HW171830   5.625   7.917   5.851  0.4559 -0.1516  0.2593
23463SOL    HW271831   5.615   7.772   5.892 -0.4515 -0.0208  0.5233
23464SOL     OW71832   6.759   0.282   5.706  0.0376 -0.1022 -0.0194
23464SOL    HW171833   6.750   0.345   5.634 -1.0087  0.8748  0.9301
23464SOL    HW271834   6.802   0.332   5.775  1.1078 -1.0612  0.0355
23465SOL     OW71835   6.352   7.258   6.925  0.7052 -0.4856  0.1725
23465SOL    HW171836   6.342   7.250   6.830  0.3826 -1.8290  0.2883
23465SOL    HW271837   6.438   7.299   6.937 -0.1058  1.5806 -0.7003
23466SOL     OW71838   6.769   0.674   6.233  0.2868 -0.2707  0.5973
23466SOL    HW171839   6.799   0.583   6.233  1.9599  0.2073 -1.3277
23466SOL    HW271840   6.846   0.725   6.258 -0.4361  0.6824  0.9534
23467SOL     OW71841   6.419   7.260   5.723  0.0176 -0.0290 -0.5973
23467SOL    HW171842   6.343   7.238   5.776 -0.9243  1.2394 -1.3961
23467SOL    HW271843   6.481   7.300   5.785 -0.8768  1.0005 -0.3436
23468SOL     OW71844   6.386   6.583   5.366  0.0326  0.2702 -0.2788
23468SOL    HW171845   6.331   6.635   5.424  0.0872  0.6966 -0.6070
23468SOL    HW271846   6.373   6.621   5.280  2.0052  1.4079 -0.1558
23469SOL     OW71847   4.097   7.412   7.133  0.1546 -0.8455  0.0227
23469SOL    HW171848   4.031   7.468   7.092  1.7336  0.5064 -0.7816
23469SOL    HW271849   4.097   7.332   7.081 -1.6529 -1.3797  0.7672
23470SOL     OW71850   6.645   7.743   6.089  0.1199 -0.1251  0.6169
23470SOL    HW171851   6.683   7.658   6.111 -1.8922 -0.9411  1.1789
23470SOL    HW271852   6.587   7.763   6.163 -1.9601  0.1235 -1.0029
23471SOL     OW71853   5.594   0.795   5.947  0.0086  0.1146  0.1205
23471SOL    HW171854   5.607   0.843   6.029  0.2998 -0.2182  0.2719
23471SOL    HW271855   5.532   0.726   5.969  0.6789 -0.4583  0.2593
23472SOL     OW71856   4.551   7.530   6.510 -0.1924  0.0362 -0.4876
23472SOL    HW171857   4.590   7.444   6.530  0.0534  0.3614  0.5085
23472SOL    HW271858   4.457   7.514   6.508 -0.0957 -0.4856 -1.5195
23473SOL     OW71859   7.317   7.781   5.608  0.2694  0.1648  0.1007
23473SOL    HW171860   7.228   7.810   5.624  0.3928  0.8481 -0.4282
23473SOL    HW271861   7.343   7.738   5.689 -0.9305 -1.0650 -0.1139
23474SOL     OW71862   6.769   1.004   6.739 -0.2494  0.0993  0.5575
23474SOL    HW171863   6.807   0.970   6.658 -2.0805 -0.4538 -0.1291
23474SOL    HW271864   6.836   1.062   6.775  1.4276 -1.2334 -0.2721
23475SOL     OW71865   6.354   0.042   6.772 -0.9518  0.3761  0.2995
23475SOL    HW171866   6.304   0.023   6.852 -1.7789  0.9795 -0.0595
23475SOL    HW271867   6.402   0.122   6.792  0.8744 -0.8408  1.0694
23476SOL     OW71868   1.305   6.697   8.783 -0.1735  0.2560 -0.1355
23476SOL    HW171869   1.347   6.758   8.844 -0.0462  0.8360 -0.7990
23476SOL    HW271870   1.254   6.639   8.840  0.8400  0.0690  0.6109
23477SOL     OW71871   3.921   1.265   6.196  0.2148  0.4968 -0.2510
23477SOL    HW171872   3.895   1.183   6.154  1.9832 -0.0181 -0.4117
23477SOL    HW271873   3.916   1.246   6.290 -1.0188  0.7710 -0.2395
23478SOL     OW71874   7.188   7.666   7.185 -0.1116 -0.2878  0.1312
23478SOL    HW171875   7.179   7.757   7.157 -0.5505 -0.6883 -1.0660
23478SOL    HW271876   7.152   7.614   7.113  0.5405 -1.4347  0.5968
23479SOL     OW71877   4.487   5.734   7.040 -0.4484 -0.0556 -0.6385
23479SOL    HW171878   4.399   5.769   7.053  0.3567  2.5141 -1.5598
23479SOL    HW271879   4.489   5.710   6.947 -1.2776 -3.7149  0.1356
23480SOL     OW71880   0.629   7.365   5.412  0.4451  0.1808  0.3198
23480SOL    HW171881   0.722   7.342   5.420  0.4275  0.6670  2.2064
23480SOL    HW271882   0.619   7.445   5.464 -0.8382  0.7599 -0.7436
23481SOL     OW71883   7.418   6.831   6.297 -0.0398  0.3255 -0.3553
23481SOL    HW171884   7.340   6.840   6.351  0.0730  3.4092 -0.5126
23481SOL    HW271885   7.470   6.909   6.317  1.8857 -0.4323 -2.0191
23482SOL     OW71886   6.394   7.860   6.180  0.0301 -0.0969  0.3302
23482SOL    HW171887   6.368   7.914   6.106 -0.0541  0.0313  0.4540
23482SOL    HW271888   6.387   7.918   6.256  0.6527 -0.0602  0.3682
23483SOL     OW71889   7.721   6.150   8.764  0.4826 -0.8688  0.0461
23483SOL    HW171890   7.752   6.071   8.808 -0.4269 -1.6295 -0.6375
23483SOL    HW271891   7.721   6.217   8.833 -2.5857 -2.4111  1.7990
23484SOL     OW71892   5.069   6.413   7.237  0.2134 -0.6706 -0.2712
23484SOL    HW171893   5.148   6.458   7.268 -0.8346  1.3318 -0.3369
23484SOL    HW271894   5.084   6.321   7.258  2.0666 -0.1852  0.7602
23485SOL     OW71895   5.978   0.024   8.078 -0.2693 -0.4166 -0.4619
23485SOL    HW171896   5.938  -0.040   8.019  0.8532 -0.6057 -1.0479
23485SOL    HW271897   5.904   0.069   8.119 -1.0818 -0.2428 -2.0597
23486SOL     OW71898   5.881   1.044   7.462 -0.5199  0.3416 -0.1956
23486SOL    HW171899   5.857   1.135   7.478 -0.1844  0.2697  0.8163
23486SOL    HW271900   5.819   0.994   7.515  0.7682  0.0951  1.1518
23487SOL     OW71901   7.730   7.419   8.680  0.6893  0.1202 -0.3577
23487SOL    HW171902   7.648   7.374   8.662 -0.0950  1.0658  0.7066
23487SOL    HW271903   7.774   7.364   8.746  0.4982  0.0756 -0.2677
23488SOL     OW71904   6.504   7.678   8.811 -0.0280  0.0605 -0.2296
23488SOL    HW171905   6.417   7.691   8.849 -0.0469 -1.9448  0.5257
23488SOL    HW271906   6.537   7.597   8.851  0.7226 -1.2211 -3.1148
23489SOL     OW71907   6.024   1.096   9.884 -0.0608  0.4356  0.6221
23489SOL    HW171908   6.023   1.161   9.814 -1.9246 -0.2098 -0.0026
23489SOL    HW271909   6.015   1.012   9.839 -2.2450  0.0632  1.6381
23490SOL     OW71910   7.267   1.164   8.605  0.7093 -0.1539  0.7536
23490SOL    HW171911   7.297   1.076   8.582  0.0592 -0.0855 -0.4056
23490SOL    HW271912   7.340   1.221   8.583 -0.2603  0.0467 -2.3174
23491SOL     OW71913   6.405   7.706   9.677  0.1336  0.2684 -0.0725
23491SOL    HW171914   6.319   7.730   9.711 -0.0642  0.1811 -0.5160
23491SOL    HW271915   6.453   7.674   9.754 -0.0642  0.7639  0.2656
23492SOL     OW71916   7.858   6.911   8.491  0.0888 -0.0572  0.0978
23492SOL    HW171917   7.848   6.836   8.433 -0.8919 -1.4940  1.9768
23492SOL    HW271918   7.770   6.923   8.528  0.3179  1.8109  0.1222
23493SOL     OW71919   7.468   6.913   7.813 -0.0795  0.4076  0.2418
23493SOL    HW171920   7.435   6.988   7.764  1.5096  0.6563 -0.5449
23493SOL    HW271921   7.425   6.918   7.897 -1.4736  1.0757 -0.4792
23494SOL     OW71922   7.069   0.756   9.954  0.0732 -0.4701 -0.2028
23494SOL    HW171923   7.005   0.824   9.977 -0.3492 -0.5610 -1.0605
23494SOL    HW271924   7.143   0.804   9.918 -0.0143 -0.4313 -0.3331
23495SOL     OW71925   6.609   0.579   8.895  0.3977  0.1062  0.2360
23495SOL    HW171926   6.592   0.636   8.970  0.3794  0.8525 -0.3163
23495SOL    HW271927   6.573   0.628   8.820  2.2767  0.3676 -0.5540
23496SOL     OW71928   5.342   6.823   8.652  0.1604  0.4064 -0.1607
23496SOL    HW171929   5.343   6.908   8.696 -0.5296  0.1342  0.4117
23496SOL    HW271930   5.353   6.760   8.723 -0.7785 -0.0329 -0.3973
23497SOL     OW71931   0.011   0.181   8.195  0.8194 -0.0753 -0.0987
23497SOL    HW171932  -0.000   0.110   8.259 -0.5804  0.7970  0.6772
23497SOL    HW271933  -0.001   0.139   8.110 -2.2989 -0.4460  0.4223
23498SOL     OW71934   5.178   1.055   7.801 -0.0164  0.2103 -0.1149
23498SOL    HW171935   5.127   1.118   7.750  1.0710 -0.2375 -1.8421
23498SOL    HW271936   5.267   1.090   7.799  0.7907 -1.7621 -1.8523
23499SOL     OW71937   4.513   0.430   7.986 -0.9516 -0.7619 -0.0891
23499SOL    HW171938   4.502   0.512   8.033 -0.7920 -1.0340  0.4246
23499SOL    HW271939   4.430   0.385   7.995 -0.2530 -1.7829  1.8141
23500SOL     OW71940   7.520   0.138   7.207 -0.2205  0.2969 -0.0580
23500SOL    HW171941   7.526   0.186   7.125  0.1519 -0.2546 -0.3524
23500SOL    HW271942   7.524   0.206   7.275 -3.8606  1.1535 -0.4836
23501SOL     OW71943   7.009   6.987   8.529 -0.0134 -0.6367 -0.0836
23501SOL    HW171944   6.981   7.042   8.455  0.8998  0.1445  0.1294
23501SOL    HW271945   7.048   6.910   8.489 -0.6953 -0.8240 -0.3986
23502SOL     OW71946   5.597   7.030   7.538 -0.0257 -0.0795 -0.3858
23502SOL    HW171947   5.658   6.977   7.486  0.5443 -0.5072  0.7026
23502SOL    HW271948   5.647   7.055   7.615 -0.8512  0.6011 -0.0638
23503SOL     OW71949   5.775   6.214   7.870  0.0306 -0.7173  0.3821
23503SOL    HW171950   5.690   6.170   7.866 -0.2965 -0.2023  1.3880
23503SOL    HW271951   5.769   6.282   7.802 -0.6730 -0.1726  0.9676
23504SOL     OW71952   1.172   7.577   8.011  0.4987  0.8210  0.1700
23504SOL    HW171953   1.236   7.642   7.982  1.2659 -0.3640 -0.8921
23504SOL    HW271954   1.191   7.563   8.103  1.3753  0.9300  0.0138
23505SOL     OW71955   7.304   0.413   7.904 -0.1298  0.7236  0.0885
23505SOL    HW171956   7.323   0.397   7.812 -1.9865  1.4105 -0.4759
23505SOL    HW271957   7.388   0.435   7.943  0.4332  2.5256 -1.9240
23506SOL     OW71958   5.415   7.082   9.404  0.1067 -0.1560 -0.5974
23506SOL    HW171959   5.481   7.065   9.337 -0.1892  0.5213 -1.0685
23506SOL    HW271960   5.403   7.177   9.403  0.5247 -0.0581  0.8210
23507SOL     OW71961   6.322   0.905   8.327  0.3211 -0.3415  0.6390
23507SOL    HW171962   6.352   0.865   8.246  0.3159 -0.6603  0.7908
23507SOL    HW271963   6.278   0.985   8.300 -1.0742 -1.2195  0.1916
23508SOL     OW71964   5.981   1.224   8.348  0.0718 -0.2553 -0.3374
23508SOL    HW171965   5.960   1.275   8.270 -1.3898 -1.8287 -1.0285
23508SOL    HW271966   6.066   1.183   8.328 -0.2865 -0.6368 -1.1100
23509SOL     OW71967   6.888   7.179   8.347 -0.1317 -0.0560  0.5836
23509SOL    HW171968   6.852   7.258   8.386 -0.1947  0.3767 -0.3186
23509SOL    HW271969   6.828   7.157   8.276  1.1009  0.4533 -0.6910
23510SOL     OW71970   6.223   0.451   6.395  0.1983  0.1805  0.2949
23510SOL    HW171971   6.221   0.507   6.317 -0.6032  1.7421  1.3655
23510SOL    HW271972   6.242   0.512   6.467  1.3645 -1.2778  1.2821
23511SOL     OW71973   7.333   1.505   9.154  0.1360 -0.7433  0.7543
23511SOL    HW171974   7.402   1.566   9.180 -0.3883 -0.3699  1.3135
23511SOL    HW271975   7.377   1.420   9.147  1.4748  0.0853 -2.7002
23512SOL     OW71976   4.556   0.067   7.002 -0.2301 -0.0215 -0.4008
23512SOL    HW171977   4.523   0.051   7.090  0.0825 -3.0468 -0.7504
23512SOL    HW271978   4.648   0.042   7.006 -0.5455 -1.5378 -1.8814
23513SOL     OW71979   7.249   7.075   8.229  0.4859 -0.4004 -0.2089
23513SOL    HW171980   7.236   7.163   8.266  1.4955  0.5185 -1.9040
23513SOL    HW271981   7.171   7.060   8.176  0.7666 -0.0945 -0.7122
23514SOL     OW71982   7.171   0.034   9.163 -0.3175  0.1120  0.4561
23514SOL    HW171983   7.233   0.106   9.154  0.6639 -0.6798  0.6684
23514SOL    HW271984   7.219  -0.032   9.213 -1.4890 -0.3533  0.9940
23515SOL     OW71985   6.455   0.986   7.192  0.4278  0.6720 -0.2037
23515SOL    HW171986   6.442   1.036   7.273 -1.8875 -0.0779 -0.0545
23515SOL    HW271987   6.424   1.045   7.123 -2.2522 -0.4001 -0.0336
23516SOL     OW71988   6.786   6.743   7.039  0.9246  0.3673 -0.6497
23516SOL    HW171989   6.709   6.727   6.984 -0.7214  1.0702  1.3459
23516SOL    HW271990   6.769   6.694   7.119  2.7715  0.2321 -0.2962
23517SOL     OW71991   2.919   7.435  10.024  0.5250  0.0237  0.5733
23517SOL    HW171992   2.895   7.517  10.068 -0.5837  0.1627 -0.2285
23517SOL    HW271993   3.013   7.441  10.011  0.3464  1.5960 -0.2398
23518SOL     OW71994   5.857   7.718   8.247 -0.3543  0.2682 -0.2392
23518SOL    HW171995   5.820   7.807   8.241  0.2745  0.5327 -0.3215
23518SOL    HW271996   5.853   7.685   8.157 -2.2515 -0.4932  0.0912
23519SOL     OW71997   7.442   6.491   8.247  0.5769 -0.4109 -0.6049
23519SOL    HW171998   7.417   6.516   8.336  0.8019  0.2611 -0.7236
23519SOL    HW271999   7.512   6.553   8.224 -0.1538  0.0600 -1.6157
23520SOL     OW72000   5.440   7.335   8.474  0.4682 -0.1028  0.7012
23520SOL    HW172001   5.480   7.401   8.530 -0.2266  0.8630  0.0779
23520SOL    HW272002   5.470   7.357   8.386 -1.2766  0.5514  0.2331
23521SOL     OW72003   7.009   7.781   9.190 -0.4598 -0.0844  0.2298
23521SOL    HW172004   6.975   7.736   9.267 -0.0614 -3.3574 -1.3485
23521SOL    HW272005   7.093   7.817   9.218  0.2938 -2.3536  1.0669
23522SOL     OW72006   6.608   1.324   7.683  0.4741 -0.0287 -0.0264
23522SOL    HW172007   6.665   1.314   7.759  0.1552 -1.1360  0.0852
23522SOL    HW272008   6.599   1.419   7.673  0.8432  0.1440  1.0690
23523SOL     OW72009   6.932   1.633   7.953 -0.1827  0.5321 -0.0422
23523SOL    HW172010   6.891   1.663   8.035 -0.6310 -1.0104  0.3189
23523SOL    HW272011   6.905   1.698   7.888 -0.5000  1.3301  0.8629
23524SOL     OW72012   5.401   1.702   9.506  0.6301 -0.1331 -0.5737
23524SOL    HW172013   5.416   1.704   9.601  0.3455  0.0344 -0.5332
23524SOL    HW272014   5.439   1.619   9.478 -0.3455 -0.7448 -0.1355
23525SOL     OW72015   7.725   7.215   7.127  0.3302 -0.3553 -0.7547
23525SOL    HW172016   7.799   7.155   7.116  1.2507  0.7500 -0.7455
23525SOL    HW272017   7.737   7.281   7.059 -0.2797  0.2091 -0.3284
23526SOL     OW72018   0.373   7.442   9.178  0.2018 -0.1788 -0.3566
23526SOL    HW172019   0.461   7.418   9.148  0.7487  0.9320  0.3025
23526SOL    HW272020   0.324   7.461   9.098  0.8593  0.1872 -0.6748
23527SOL     OW72021   4.925   7.405   8.717 -0.3348  0.1821  0.5792
23527SOL    HW172022   4.940   7.312   8.733 -0.0602  0.0551 -0.3452
23527SOL    HW272023   4.993   7.449   8.768 -1.1314 -0.0509  1.8926
23528SOL     OW72024   5.602   0.849   9.246  0.5395  0.1634  0.4808
23528SOL    HW172025   5.631   0.890   9.327 -0.0926  0.9730  0.3032
23528SOL    HW272026   5.631   0.758   9.253 -0.5036 -0.0795  2.1412
23529SOL     OW72027   7.588   0.745   9.200  0.3112  0.4166  0.0870
23529SOL    HW172028   7.542   0.828   9.201 -1.9584 -0.7537  0.1123
23529SOL    HW272029   7.574   0.710   9.112 -1.3154 -1.1874  0.9082
23530SOL     OW72030   6.464   0.291   7.693  0.4094  0.1448  0.2250
23530SOL    HW172031   6.481   0.203   7.660 -0.9233  0.2365 -0.7657
23530SOL    HW272032   6.474   0.283   7.788  0.8858 -0.9222  0.1040
23531SOL     OW72033   7.321   6.653   7.872  0.3320  0.1491 -0.3755
23531SOL    HW172034   7.334   6.730   7.817  1.2174  0.4743  0.2726
23531SOL    HW272035   7.250   6.678   7.932 -0.3953 -0.0829 -1.1153
23532SOL     OW72036   6.700   6.745   5.689  0.4416 -0.0071  0.1646
23532SOL    HW172037   6.658   6.831   5.692  1.2991  0.4597 -0.6168
23532SOL    HW272038   6.672   6.707   5.606 -0.0325 -0.5488  0.5636
23533SOL     OW72039   7.523   7.414   7.676 -0.4921  0.1669  0.4202
23533SOL    HW172040   7.495   7.485   7.618 -0.8663  0.7908  1.3393
23533SOL    HW272041   7.614   7.396   7.651 -1.1828 -0.8386 -1.5827
23534SOL     OW72042   4.489   6.633   8.934  0.2352  0.1399 -0.0618
23534SOL    HW172043   4.402   6.598   8.914  0.4741  1.3228 -4.2738
23534SOL    HW272044   4.547   6.558   8.924  0.1257  0.3114 -2.9538
23535SOL     OW72045   6.567   1.051   7.615  0.2963 -0.0965 -0.0095
23535SOL    HW172046   6.623   1.010   7.681  0.7573 -0.8222 -0.8441
23535SOL    HW272047   6.589   1.144   7.620  0.0597 -0.0813  1.1081
23536SOL     OW72048   5.773   5.450   7.251  0.5468  0.3326  0.4471
23536SOL    HW172049   5.776   5.354   7.244 -0.0446  0.3774 -0.9660
23536SOL    HW272050   5.680   5.470   7.256  0.5338  0.8984 -1.2818
23537SOL     OW72051   7.315   6.938   8.475  0.6475  0.0066 -0.0859
23537SOL    HW172052   7.279   6.978   8.396  1.2777 -1.4228 -1.1396
23537SOL    HW272053   7.329   6.847   8.451 -1.3511 -1.0798  2.4185
23538SOL     OW72054   4.741   7.635   7.603 -0.1951  0.4106 -0.2386
23538SOL    HW172055   4.705   7.721   7.621  1.2114  1.1022 -0.6081
23538SOL    HW272056   4.668   7.586   7.566 -1.2356  1.1589  0.7519
23539SOL     OW72057   5.344   0.063   7.510  0.0073 -0.3477  0.0281
23539SOL    HW172058   5.363  -0.031   7.510 -1.5903 -0.7725 -2.3308
23539SOL    HW272059   5.286   0.075   7.435  0.3650  2.5880  0.1095
23540SOL     OW72060   5.969   0.196   8.950 -0.1936 -0.1275 -0.5434
23540SOL    HW172061   5.892   0.139   8.957  0.2925 -0.6740  0.7382
23540SOL    HW272062   5.998   0.208   9.041  1.5741 -0.4115 -1.0284
23541SOL     OW72063   6.310   7.861   7.474  0.4085 -0.0332 -0.6726
23541SOL    HW172064   6.293   7.831   7.385 -1.5466 -0.7089 -0.1449
23541SOL    HW272065   6.229   7.906   7.499 -0.4701 -2.6438  1.8029
23542SOL     OW72066   6.404   1.692   6.929  0.6833 -0.0997 -0.2891
23542SOL    HW172067   6.384   1.671   7.020 -1.2423  0.5630 -0.5123
23542SOL    HW272068   6.355   1.627   6.878  1.3584 -0.1652 -0.8729
23543SOL     OW72069   6.333   6.274   6.144  1.1858 -0.4921 -0.1723
23543SOL    HW172070   6.269   6.313   6.085 -0.0302  1.1427  2.0521
23543SOL    HW272071   6.322   6.179   6.133 -0.3241 -0.2351 -1.1688
23544SOL     OW72072   7.347   7.189   7.114  0.5583 -0.0758  0.4077
23544SOL    HW172073   7.366   7.136   7.037 -1.8597  1.4619 -1.3936
23544SOL    HW272074   7.409   7.262   7.111  0.8797 -0.3529  0.2989
23545SOL     OW72075   4.386   7.002   6.630 -0.1361 -0.0880  0.0835
23545SOL    HW172076   4.413   6.940   6.563 -0.7717 -1.1913  0.8079
23545SOL    HW272077   4.320   7.057   6.588  0.2838 -0.0304 -0.5074
23546SOL     OW72078   0.012   7.604   9.274 -0.2482 -0.6456 -0.2959
23546SOL    HW172079   0.013   7.652   9.191 -0.7950 -1.2982 -0.6831
23546SOL    HW272080  -0.046   7.530   9.259 -2.0570  0.3609  1.2877
23547SOL     OW72081   6.807   0.841   9.269  0.1597  0.3145  0.2495
23547SOL    HW172082   6.853   0.837   9.352 -2.3018 -0.3366  1.6885
23547SOL    HW272083   6.806   0.751   9.236 -0.5073  0.2273  0.4942
23548SOL     OW72084   5.727   6.885   7.337 -0.1407  0.0898 -0.0015
23548SOL    HW172085   5.684   6.804   7.309 -1.1143  0.1796  1.1492
23548SOL    HW272086   5.793   6.857   7.400 -1.9924  0.3100  2.1332
23549SOL     OW72087   7.241   1.300   6.660  0.4714  0.1436  0.0220
23549SOL    HW172088   7.261   1.393   6.668 -0.4027  0.3322  0.1953
23549SOL    HW272089   7.231   1.270   6.750 -0.1822  0.1030 -0.0609
23550SOL     OW72090   7.233   6.606   7.172 -0.2819 -0.3115 -0.0302
23550SOL    HW172091   7.236   6.690   7.125 -1.3064 -0.1823  0.1152
23550SOL    HW272092   7.140   6.582   7.172 -0.0185 -1.3720  0.0700
23551SOL     OW72093   6.048   0.354  10.345  0.3040  0.1048  0.9379
23551SOL    HW172094   6.104   0.323  10.416  0.7510  2.0933  1.4995
23551SOL    HW272095   6.069   0.447  10.337 -0.8135  0.2432 -0.8186
23552SOL     OW72096   4.715   1.148  11.063 -0.3449 -0.2187 -0.0699
23552SOL    HW172097   4.768   1.068  11.068  0.1821  0.1939  1.7044
23552SOL    HW272098   4.625   1.117  11.055  0.0143 -0.9359 -1.9725
23553SOL     OW72099   7.695   7.142   8.059  0.4921 -0.1683 -0.2510
23553SOL    HW172100   7.788   7.125   8.076  0.3040 -2.8913 -1.3664
23553SOL    HW272101   7.686   7.129   7.964 -1.2583 -1.5270  0.0492
23554SOL     OW72102   4.476   7.098  10.739  0.1352 -0.2457 -0.1658
23554SOL    HW172103   4.529   7.019  10.741 -0.5344 -0.7183 -0.7525
23554SOL    HW272104   4.394   7.074  10.783 -0.5011 -0.2263 -1.2866
23555SOL     OW72105   6.852   0.004  10.142  0.0831 -0.5574  0.9432
23555SOL    HW172106   6.909  -0.017  10.216  1.6021 -0.6621 -0.1845
23555SOL    HW272107   6.912   0.039  10.076 -1.3797  0.6063  0.1677
23556SOL     OW72108   7.030   7.957  10.411  0.2100 -0.1226 -0.3064
23556SOL    HW172109   7.117   7.928  10.440 -0.1516  0.4140  1.3971
23556SOL    HW272110   6.970   7.892  10.448 -0.3765  1.2972  1.3442
23557SOL     OW72111   6.558   7.611   9.895  0.4670 -0.0256 -0.4780
23557SOL    HW172112   6.622   7.559   9.848  0.8789  1.1029 -1.2037
23557SOL    HW272113   6.608   7.684   9.932 -0.5423  1.6278 -2.1926
23558SOL     OW72114   6.603   7.490  11.171  0.1424  0.2601  0.6538
23558SOL    HW172115   6.518   7.534  11.171 -0.4495 -0.8422  0.6264
23558SOL    HW272116   6.650   7.529  11.097 -1.0099 -0.3359 -0.4370
23559SOL     OW72117   7.054   0.306   9.314 -0.1839  0.3089 -0.2274
23559SOL    HW172118   7.105   0.225   9.305 -0.1989  0.2118  0.4899
23559SOL    HW272119   6.968   0.276   9.343  0.3926  0.6798  2.0961
23560SOL     OW72120   7.955   7.890   9.941 -0.0491  0.3207 -0.2134
23560SOL    HW172121   7.938   7.885  10.035 -0.6639 -2.1050 -0.3836
23560SOL    HW272122   7.916   7.810   9.905  0.8750  0.7855 -2.4267
23561SOL     OW72123   5.917   7.030   9.124 -0.1554 -0.4337  0.0314
23561SOL    HW172124   5.918   6.981   9.041 -1.4377  0.6090 -0.6256
23561SOL    HW272125   5.919   6.962   9.192  0.0320 -1.3292 -0.8497
23562SOL     OW72126   6.507   0.397   9.854 -0.0840 -0.3509  0.2846
23562SOL    HW172127   6.495   0.446   9.772 -1.0388  3.2376  2.3870
23562SOL    HW272128   6.591   0.428   9.888  0.1337 -1.5422  0.8716
23563SOL     OW72129   7.192   7.726  10.885 -0.0460 -0.4021  0.1142
23563SOL    HW172130   7.214   7.634  10.867  1.2624 -0.4053  1.5569
23563SOL    HW272131   7.161   7.726  10.976 -0.7415  0.4987 -0.1007
23564SOL     OW72132   6.465   7.139   8.742 -0.1499  1.2841 -0.2960
23564SOL    HW172133   6.448   7.087   8.664  1.2286  0.0464  0.1737
23564SOL    HW272134   6.546   7.187   8.722  0.9161  0.0028  0.7823
23565SOL     OW72135   6.365   6.238  10.727  1.0788  0.6145 -0.1917
23565SOL    HW172136   6.355   6.330  10.701  1.1224  0.5836 -0.3150
23565SOL    HW272137   6.391   6.243  10.819  0.6277  0.7137 -0.0650
23566SOL     OW72138   7.113   7.980   8.839  0.1085  0.7918 -0.2611
23566SOL    HW172139   7.049   8.008   8.774  0.7035  0.2930 -1.0791
23566SOL    HW272140   7.183   8.046   8.834  0.3059  0.5764 -0.3582
23567SOL     OW72141   5.117   0.441  10.510 -0.3646 -0.3859  0.1132
23567SOL    HW172142   5.151   0.471  10.594 -0.7359  0.1723  0.0683
23567SOL    HW272143   5.111   0.520  10.457  0.7487 -0.8680 -0.7567
23568SOL     OW72144   0.523   6.635   8.613  0.0553  0.0376  0.3463
23568SOL    HW172145   0.581   6.644   8.538 -0.0345  0.1530  0.2918
23568SOL    HW272146   0.573   6.581   8.675 -0.5864 -1.6624 -0.5396
23569SOL     OW72147   6.228   6.896   9.843 -0.9155  0.2155 -0.3519
23569SOL    HW172148   6.217   6.907   9.749 -1.0950  1.8365 -0.1588
23569SOL    HW272149   6.302   6.951   9.866 -1.4188  0.5311  0.5834
23570SOL     OW72150   6.785   6.780   7.994  0.3983 -0.0799  0.3786
23570SOL    HW172151   6.735   6.709   8.032  0.1479  0.2805  0.7293
23570SOL    HW272152   6.761   6.780   7.901  0.5509 -0.5704  0.3345
23571SOL     OW72153   5.380   7.323  10.783  0.0919 -0.3854 -0.2333
23571SOL    HW172154   5.444   7.346  10.715  0.2430  0.2808  0.1242
23571SOL    HW272155   5.417   7.246  10.825  0.9996  0.3712  0.3931
23572SOL     OW72156   0.335   6.969  11.155  0.1594 -0.0231  0.2230
23572SOL    HW172157   0.248   6.933  11.136 -1.2209  1.7764  2.5335
23572SOL    HW272158   0.370   6.913  11.224 -0.2341  0.6023  0.9521
23573SOL     OW72159   5.834   6.930   8.640 -0.0675 -0.1563  0.3252
23573SOL    HW172160   5.919   6.972   8.627 -0.5695  0.4710 -1.1707
23573SOL    HW272161   5.775   7.003   8.662 -0.9982  0.0708 -2.5314
23574SOL     OW72162   6.846   6.112   8.221  0.8251 -0.2172 -0.4104
23574SOL    HW172163   6.880   6.163   8.294  0.6437  0.5503 -0.8411
23574SOL    HW272164   6.758   6.146   8.207  1.0571  0.0499 -1.3310
23575SOL     OW72165   5.999   7.984   9.379 -0.0688 -0.2555  0.7983
23575SOL    HW172166   6.064   7.928   9.338 -0.0569  0.3951 -0.1098
23575SOL    HW272167   6.036   8.007   9.464  0.8862  0.0962  0.2982
23576SOL     OW72168   4.246   1.019  10.299 -0.5379 -0.0608 -0.4099
23576SOL    HW172169   4.163   1.052  10.266 -0.8155  0.8898  1.1008
23576SOL    HW272170   4.282   1.092  10.349  1.0110 -0.6004 -0.6789
23577SOL     OW72171   4.550   7.075  10.001 -0.1859 -0.4368 -0.0644
23577SOL    HW172172   4.632   7.035  10.029 -0.4934  0.3161  2.1720
23577SOL    HW272173   4.576   7.141   9.937  0.8923 -0.6672  0.1133
23578SOL     OW72174   6.805   6.352  11.179 -0.3684  0.2292 -0.1324
23578SOL    HW172175   6.873   6.413  11.149 -1.8942  1.6360 -0.9541
23578SOL    HW272176   6.823   6.271  11.131  1.5961  0.0301  0.8320
23579SOL     OW72177   5.558   7.090  10.578 -0.6119  0.4221  0.4188
23579SOL    HW172178   5.645   7.109  10.544 -0.3646 -1.1801  0.0701
23579SOL    HW272179   5.572   7.072  10.671 -0.5833  0.3143  0.3944
23580SOL     OW72180   6.170   5.965   8.424  0.1102 -0.0962 -0.7334
23580SOL    HW172181   6.243   6.021   8.452  1.2446 -1.8965  0.1188
23580SOL    HW272182   6.207   5.912   8.353 -0.5436 -0.6627 -0.6599
23581SOL     OW72183   6.917   0.467  10.567 -0.6552  0.0863 -0.2816
23581SOL    HW172184   6.917   0.563  10.563  0.4267  0.1298  0.3341
23581SOL    HW272185   6.875   0.446  10.650  0.0638  0.0715  0.0842
23582SOL     OW72186   6.175   7.141   9.383  0.1367  0.1638 -0.5018
23582SOL    HW172187   6.197   7.114   9.293 -1.5344 -0.8354 -0.6516
23582SOL    HW272188   6.252   7.189   9.413  0.9360  0.0775 -2.2922
23583SOL     OW72189   6.851   6.016   9.502 -0.1044  0.1476 -0.1236
23583SOL    HW172190   6.789   6.087   9.488  0.8071  0.9557 -0.1729
23583SOL    HW272191   6.924   6.036   9.444  1.5191  0.8624  2.0163
23584SOL     OW72192   6.410   7.306  10.243 -0.1005  0.4349  0.4365
23584SOL    HW172193   6.473   7.347  10.184 -0.7650  1.9384  0.7293
23584SOL    HW272194   6.378   7.377  10.298 -1.3503 -0.4684  0.9307
23585SOL     OW72195   3.703   7.348   9.590  0.4734 -0.1249 -0.1758
23585SOL    HW172196   3.748   7.383   9.513  0.2392  0.6150  0.0134
23585SOL    HW272197   3.763   7.281   9.624  1.4436  0.8206  0.0514
23586SOL     OW72198   4.621   0.736   9.164  0.0117  0.7194  0.6508
23586SOL    HW172199   4.616   0.724   9.069  3.1142 -0.2084  0.4833
23586SOL    HW272200   4.535   0.711   9.196 -0.3366 -1.5166 -1.7137
23587SOL     OW72201   6.824   0.633   8.659 -0.1654 -0.2814 -0.0076
23587SOL    HW172202   6.799   0.564   8.597 -0.8240 -0.7005  0.7024
23587SOL    HW272203   6.903   0.598   8.702 -1.8587 -1.7669  2.1031
23588SOL     OW72204   6.462   0.213   9.087  0.9265 -0.0162 -0.1027
23588SOL    HW172205   6.398   0.276   9.053  0.2326 -0.4969  0.2837
23588SOL    HW272206   6.422   0.181   9.168 -1.0437 -4.4086 -2.4775
23589SOL     OW72207   0.157   7.215  10.891 -0.3897  0.0958  0.3528
23589SOL    HW172208   0.130   7.126  10.867  1.8299 -0.2499 -1.1503
23589SOL    HW272209   0.152   7.265  10.810  2.7428  0.1148  0.0596
23590SOL     OW72210   6.764   7.871   8.231  0.0502  0.4433  0.3440
23590SOL    HW172211   6.714   7.945   8.195 -1.5823 -0.7157  0.1464
23590SOL    HW272212   6.829   7.912   8.288  1.7366  2.2829 -2.6370
23591SOL     OW72213   5.342   0.946   9.143 -0.4624 -0.2055  0.6634
23591SOL    HW172214   5.277   0.986   9.085 -0.2592  0.3825  0.8334
23591SOL    HW272215   5.311   0.857   9.155  0.1308 -0.7509 -1.3546
23592SOL     OW72216   6.155   0.257  10.574 -0.1878  0.0559  0.2093
23592SOL    HW172217   6.236   0.208  10.560 -0.5784 -0.7679  0.6984
23592SOL    HW272218   6.163   0.292  10.663  0.1570  1.0285 -0.1983
23593SOL     OW72219   5.608   6.777  10.880  0.5548  0.1344  0.6138
23593SOL    HW172220   5.603   6.873  10.884  2.0573  0.3015 -0.6338
23593SOL    HW272221   5.688   6.755  10.927 -0.7471 -0.7025  2.5436
23594SOL     OW72222   5.354   7.075  11.732 -0.3922 -0.3464 -0.5914
23594SOL    HW172223   5.375   7.078  11.825  0.2696 -1.3691 -0.6830
23594SOL    HW272224   5.352   7.166  11.704  1.4870 -0.0915 -0.0136
23595SOL     OW72225   6.825   7.404  10.506 -0.1765 -0.1639 -0.0122
23595SOL    HW172226   6.825   7.309  10.502 -0.5070 -0.1339 -0.9284
23595SOL    HW272227   6.913   7.427  10.534 -0.2751 -0.7494  0.8229
23596SOL     OW72228   5.763   0.491  10.896  0.2961  0.0514 -0.7848
23596SOL    HW172229   5.857   0.485  10.880  0.9597  2.6562  1.4390
23596SOL    HW272230   5.723   0.474  10.811  2.8778  0.6205 -2.2024
23597SOL     OW72231   6.178   6.865   8.810 -0.7852 -0.1375  0.1799
23597SOL    HW172232   6.232   6.804   8.759  0.3820  0.1153  1.0704
23597SOL    HW272233   6.150   6.930   8.745  1.0152  0.4100 -0.1328
23598SOL     OW72234   5.584   7.683   8.443  0.2045  0.1436  0.1670
23598SOL    HW172235   5.615   7.627   8.371  1.1800 -0.2382  0.8572
23598SOL    HW272236   5.555   7.763   8.400 -1.0294 -0.8029 -0.8313
23599SOL     OW72237   0.165   7.293   8.945 -0.6023  0.4161  0.2058
23599SOL    HW172238   0.210   7.376   8.954 -2.0948  1.1747  1.0279
23599SOL    HW272239   0.123   7.297   8.859  0.4230 -0.0853 -0.3426
23600SOL     OW72240   5.677   7.195   7.863 -0.0889 -0.2919  0.3378
23600SOL    HW172241   5.676   7.221   7.956 -2.6239 -0.3987  0.3943
23600SOL    HW272242   5.658   7.102   7.864 -4.6636  0.4147 -0.3318
23601SOL     OW72243   6.729   7.520   9.687  0.0769  0.0863 -0.2980
23601SOL    HW172244   6.817   7.554   9.697  0.1749 -0.6266  1.9440
23601SOL    HW272245   6.736   7.427   9.711 -0.9771 -0.4388 -1.8515
23602SOL     OW72246   5.124   1.321  10.433 -0.0240  0.1705 -0.2800
23602SOL    HW172247   5.105   1.413  10.450 -0.1018  0.2170 -0.6184
23602SOL    HW272248   5.049   1.273  10.469 -0.5428  0.3182 -1.1303
23603SOL     OW72249   6.690   0.243   9.583 -0.1074 -0.1479 -0.0499
23603SOL    HW172250   6.655   0.179   9.521 -2.7178 -1.1113  2.1921
23603SOL    HW272251   6.683   0.200   9.668  0.8261  2.0705  1.2407
23604SOL     OW72252   7.208   0.189  10.237  0.2679  0.0467 -0.1485
23604SOL    HW172253   7.132   0.160  10.287  0.9219 -0.2544  0.6908
23604SOL    HW272254   7.219   0.281  10.262 -0.2921  0.3224 -0.8848
23605SOL     OW72255   6.807   7.511  10.249  0.4674 -0.5028 -0.5468
23605SOL    HW172256   6.723   7.498  10.207 -1.1220  1.8700  1.5510
23605SOL    HW272257   6.812   7.442  10.316  0.3236 -0.7863 -0.8266
23606SOL     OW72258   6.143   1.285   8.819  0.7676 -0.0362  0.6547
23606SOL    HW172259   6.211   1.238   8.868  0.7645  0.8685  1.5759
23606SOL    HW272260   6.184   1.368   8.795  1.2436 -0.9775 -2.1716
23607SOL     OW72261   6.065   7.653   7.790 -0.0775 -0.0910  0.4097
23607SOL    HW172262   6.155   7.641   7.819 -0.5432 -1.4849  1.3892
23607SOL    HW272263   6.068   7.635   7.696  0.8486  1.0530  0.1966
23608SOL     OW72264   6.607   7.376  10.033  0.0124  0.1004 -0.1588
23608SOL    HW172265   6.580   7.442   9.969  1.4051  0.6866 -0.1863
23608SOL    HW272266   6.613   7.295   9.983  0.8844  0.5116 -0.7510
23609SOL     OW72267   5.887   7.784   8.539 -0.4923 -0.2136  0.2973
23609SOL    HW172268   5.899   7.716   8.472  2.2188  0.4848 -0.0629
23609SOL    HW272269   5.823   7.843   8.501  0.6112 -0.1008 -1.5305
23610SOL     OW72270   7.147   0.317   9.627  0.0043  0.5456 -0.3972
23610SOL    HW172271   7.084   0.275   9.685 -1.2442  2.6515 -0.1239
23610SOL    HW272272   7.134   0.275   9.542 -1.0218  0.2122 -0.0851
23611SOL     OW72273   7.330   6.284   0.469  0.6421  0.9450 -0.4584
23611SOL    HW172274   7.262   6.314   0.530 -0.0724  0.3427 -0.9328
23611SOL    HW272275   7.389   6.358   0.460 -0.0747  1.5609 -0.1989
23612SOL     OW72276   7.404   7.988   8.375  0.3276 -0.1865  0.0254
23612SOL    HW172277   7.406   8.056   8.307  1.3148 -0.4741 -0.2420
23612SOL    HW272278   7.323   8.005   8.423 -0.4223 -0.0123 -1.2610
23613SOL     OW72279   5.494   7.336   9.784 -1.1450 -0.0788 -0.1364
23613SOL    HW172280   5.519   7.343   9.876 -1.4293  0.4964 -0.0995
23613SOL    HW272281   5.416   7.280   9.785 -1.4840  0.3899  0.0358
23614SOL     OW72282   7.882   0.479   7.739  0.3642 -0.1835 -0.4826
23614SOL    HW172283   7.817   0.528   7.689  0.8354 -0.3953 -1.3166
23614SOL    HW272284   7.902   0.403   7.686  1.7204  0.1686 -0.5297
23615SOL     OW72285   7.318   7.926  10.463 -0.6316  0.6466 -0.3648
23615SOL    HW172286   7.309   7.890  10.551 -0.9595 -0.7312 -0.9386
23615SOL    HW272287   7.325   8.021  10.477 -1.0710  0.4954  1.1041
23616SOL     OW72288   7.735   7.837  10.582 -0.2490 -0.0444 -0.1982
23616SOL    HW172289   7.797   7.890  10.531  0.6093 -0.5817  0.2664
23616SOL    HW272290   7.699   7.775  10.519 -2.0720  1.7206 -1.0089
23617SOL     OW72291   0.612   7.352   9.466  0.3796 -0.3401 -0.3424
23617SOL    HW172292   0.657   7.379   9.546  0.0624 -1.2675  0.1662
23617SOL    HW272293   0.535   7.408   9.461  0.2981 -0.4049  0.1141
23618SOL     OW72294   5.837   7.092  10.523 -0.1134 -0.0230 -0.1176
23618SOL    HW172295   5.900   7.086  10.451 -0.3814 -0.1529 -0.3435
23618SOL    HW272296   5.869   7.030  10.589 -0.6684 -0.9816 -0.7399
23619SOL     OW72297   6.263   7.078  10.779  0.5031  0.9652 -0.7768
23619SOL    HW172298   6.206   7.117  10.846  1.9042  1.8490 -0.0512
23619SOL    HW272299   6.233   7.116  10.697 -1.4445 -0.3604 -0.7711
23620SOL     OW72300   5.509   7.729  10.417 -0.3462  0.7625  0.0288
23620SOL    HW172301   5.505   7.706  10.324  0.1831  0.0212  0.1784
23620SOL    HW272302   5.599   7.709  10.443 -0.6656  0.3481  0.8491
23621SOL     OW72303   7.767   5.977  11.263 -0.2977  0.0094 -0.6557
23621SOL    HW172304   7.832   5.965  11.333 -0.1217  0.4070 -0.7446
23621SOL    HW272305   7.809   5.943  11.185 -0.8478 -1.2915 -0.4106
23622SOL     OW72306   6.070   1.350   0.213 -0.1767  0.0979  0.0740
23622SOL    HW172307   6.039   1.282   0.152  0.5789  0.3997 -0.6598
23622SOL    HW272308   5.998   1.413   0.217 -0.3763 -0.1071 -0.2207
23623SOL     OW72309   6.511   7.439  11.816  0.1168 -0.5149  0.3763
23623SOL    HW172310   6.598   7.446  11.776  0.8407  1.8486  2.1519
23623SOL    HW272311   6.451   7.457  11.744  1.2215  0.2030 -0.4017
23624SOL     OW72312   7.153   6.751  12.013  0.0009  0.5635 -0.1073
23624SOL    HW172313   7.170   6.845  12.004  0.3065  0.6617  1.2387
23624SOL    HW272314   7.238   6.714  12.038 -0.1606 -0.0416 -0.4532
23625SOL     OW72315   5.212   0.529   0.218 -0.3449 -0.1353 -0.3575
23625SOL    HW172316   5.120   0.522   0.195 -0.2405  1.4798 -1.4202
23625SOL    HW272317   5.256   0.547   0.135  0.6970  0.8506  0.3778
23626SOL     OW72318   5.373   6.328  10.328 -0.7193 -0.3204  0.3584
23626SOL    HW172319   5.359   6.401  10.387  1.7452 -0.2670  1.0005
23626SOL    HW272320   5.438   6.273  10.372  0.9095 -0.4939 -2.0511
23627SOL     OW72321   6.192   1.343  12.184 -0.0711 -0.4435 -0.4460
23627SOL    HW172322   6.097   1.342  12.168 -0.2040 -0.2253  0.3196
23627SOL    HW272323   6.209   1.430  12.220  0.6604  0.0652 -1.9237
23628SOL     OW72324   6.914   6.524  11.441 -0.6669  0.8595  0.1749
23628SOL    HW172325   6.980   6.588  11.468 -0.0779  0.5311 -0.4725
23628SOL    HW272326   6.874   6.563  11.363 -2.2754  1.7448  1.3736
23629SOL     OW72327   6.048   7.903  11.154 -0.2641 -0.0037 -0.0686
23629SOL    HW172328   5.974   7.858  11.113 -0.3894  0.6558 -0.5728
23629SOL    HW272329   6.123   7.878  11.100 -0.0542 -0.9003  0.6082
23630SOL     OW72330   5.510   7.732  11.758 -0.3030  0.0723 -0.5165
23630SOL    HW172331   5.582   7.783  11.722 -0.7029  0.6129 -0.5680
23630SOL    HW272332   5.438   7.795  11.766 -0.8014 -0.4793 -0.5712
23631SOL     OW72333   5.272   7.881  11.758  0.0688  0.3517  0.3717
23631SOL    HW172334   5.259   7.904  11.666 -3.4804 -4.2290 -0.6267
23631SOL    HW272335   5.230   7.951  11.807  1.7189  2.7074 -1.3752
23632SOL     OW72336   6.576   7.509  10.528 -0.2742  0.0862 -0.4680
23632SOL    HW172337   6.662   7.471  10.508 -0.7576 -1.2444 -0.1338
23632SOL    HW272338   6.545   7.459  10.604 -0.9735  1.1413 -0.0380
23633SOL     OW72339   6.424   0.865  12.492  0.6233 -0.1950  0.1024
23633SOL    HW172340   6.453   0.917  12.417 -0.9532  1.5502  0.6042
23633SOL    HW272341   6.409   0.777  12.457 -3.5481  1.2853 -2.6769
23634SOL     OW72342   6.330   6.863  11.889 -0.0898  0.6948 -0.3472
23634SOL    HW172343   6.362   6.899  11.972 -0.1450  2.9697 -1.2346
23634SOL    HW272344   6.402   6.811  11.856  0.0526  0.0260  0.9601
23635SOL     OW72345   7.885   7.890  11.595  0.3463 -0.1622 -0.1924
23635SOL    HW172346   7.864   7.983  11.591  0.3403 -0.1922 -1.0038
23635SOL    HW272347   7.800   7.847  11.602  0.4081 -0.0536  1.8711
23636SOL     OW72348   7.416   7.805  11.825 -0.0053  0.6048 -0.2241
23636SOL    HW172349   7.323   7.824  11.822 -0.2711 -0.6591 -0.5616
23636SOL    HW272350   7.421   7.709  11.832  1.1986  0.7619  2.9522
23637SOL     OW72351   6.830   7.919  11.399  0.1367 -0.2617  0.0634
23637SOL    HW172352   6.899   7.951  11.341  0.6586 -0.9295  0.2942
23637SOL    HW272353   6.770   7.993  11.408  0.5408  0.1586 -0.5680
23638SOL     OW72354   6.747   6.828  11.961  0.5276  0.0071  0.2557
23638SOL    HW172355   6.704   6.822  12.046 -0.6336  1.3071 -0.1956
23638SOL    HW272356   6.801   6.750  11.956 -2.4532 -2.2541  0.5121
23639SOL     OW72357   6.058   6.783   0.219 -0.1393 -0.0259  0.0440
23639SOL    HW172358   6.060   6.713   0.285  0.8968  0.6870  0.8138
23639SOL    HW272359   6.143   6.777   0.175  0.1239  0.9827  0.3917
23640SOL     OW72360   5.735   7.475  10.707 -0.4903  0.1579 -0.0293
23640SOL    HW172361   5.738   7.565  10.673  2.1213 -0.7646 -2.6894
23640SOL    HW272362   5.685   7.426  10.643 -0.7585 -0.5584  0.7010
23641SOL     OW72363   7.187   0.704   2.429 -0.5621  0.0046  0.2768
23641SOL    HW172364   7.197   0.775   2.492 -0.3315 -0.3229  0.6174
23641SOL    HW272365   7.174   0.626   2.484  1.1041 -0.5222 -0.0286
23642SOL     OW72366   5.719   1.114   0.685  0.3620  0.4993 -0.3205
23642SOL    HW172367   5.679   1.084   0.767  0.2298 -1.4458 -1.0481
23642SOL    HW272368   5.811   1.089   0.693  0.4785  0.8503 -0.5370
23643SOL     OW72369   7.693   7.044  11.669 -0.1229 -0.0015  0.7970
23643SOL    HW172370   7.779   7.084  11.683 -0.8572  2.0942 -0.3109
23643SOL    HW272371   7.675   6.998  11.750  1.3960  0.7813  1.6263
23644SOL     OW72372   4.474   6.081  11.776  0.0540  0.2091 -0.6327
23644SOL    HW172373   4.403   6.116  11.830 -1.6042 -1.6514 -1.4713
23644SOL    HW272374   4.471   6.133  11.696  0.0504  0.5395 -0.4197
23645SOL     OW72375   6.502   7.201  10.948  0.1309 -0.1347 -0.2998
23645SOL    HW172376   6.594   7.186  10.929  0.4825 -0.1398  1.2866
23645SOL    HW272377   6.499   7.219  11.041 -1.2631  1.6993 -0.6477
23646SOL     OW72378   6.035   7.729  10.012  0.9160 -0.2110  0.5684
23646SOL    HW172379   5.941   7.745   9.998  1.0636  0.1052 -0.0850
23646SOL    HW272380   6.053   7.648   9.964  0.8885 -0.5299  1.0800
23647SOL     OW72381   6.217   0.169  11.758 -0.1221  0.0617 -0.3076
23647SOL    HW172382   6.181   0.101  11.701 -0.3229  0.2708 -0.4335
23647SOL    HW272383   6.311   0.166  11.743 -0.2410  0.6363 -1.2321
23648SOL     OW72384   6.972   1.942   2.267 -0.7508  0.1214  0.1749
23648SOL    HW172385   6.915   1.865   2.263 -0.9981  0.3328 -0.4794
23648SOL    HW272386   6.912   2.016   2.278 -0.6398  0.3801 -0.8701
23649SOL     OW72387   6.769   5.232  11.362 -0.0048 -0.1614  0.1174
23649SOL    HW172388   6.816   5.152  11.385 -0.9800 -1.0053 -0.7561
23649SOL    HW272389   6.716   5.251  11.439  2.1472  1.1667  1.3863
23650SOL     OW72390   7.930   6.639  11.735 -0.8365 -0.0131  0.7137
23650SOL    HW172391   7.918   6.595  11.820  1.5286 -1.0653  0.5685
23650SOL    HW272392   7.982   6.717  11.756  0.6429 -0.8164  0.1449
23651SOL     OW72393   6.999   0.035   0.085  0.0114  0.6590 -0.5903
23651SOL    HW172394   6.927   0.047   0.147 -0.4425  0.5925 -1.1018
23651SOL    HW272395   7.039  -0.048   0.111 -1.3739 -0.3396 -1.5759
23652SOL     OW72396   0.316   5.900  11.887 -0.6717 -0.2853 -0.6002
23652SOL    HW172397   0.341   5.809  11.872  2.9342  0.0031  2.2456
23652SOL    HW272398   0.273   5.899  11.973  2.4111  0.9198  1.1035
23653SOL     OW72399   7.610   7.888  11.637 -0.2590  0.3691 -0.3589
23653SOL    HW172400   7.545   7.872  11.706  0.8940  1.6553  1.1087
23653SOL    HW272401   7.565   7.942  11.573 -1.8377 -2.1241 -1.5196
23654SOL     OW72402   4.058   6.531   0.193 -0.4459 -0.5554  0.2773
23654SOL    HW172403   4.145   6.554   0.160 -0.1373  0.5618  1.7930
23654SOL    HW272404   4.004   6.606   0.169 -0.9274 -1.0823 -0.3229
23655SOL     OW72405   5.590   6.611   0.127 -0.0094  0.0321  0.1941
23655SOL    HW172406   5.669   6.652   0.091  1.4863 -2.1521  0.7456
23655SOL    HW272407   5.570   6.661   0.205  0.3633  1.0862 -0.3660
23656SOL     OW72408   6.199   7.085  12.081 -0.3485  0.1279  0.0720
23656SOL    HW172409   6.277   7.030  12.091 -1.1903 -1.0070  0.6987
23656SOL    HW272410   6.135   7.027  12.038 -1.3089  0.5607  0.8809
23657SOL     OW72411   4.881   6.945  11.747 -0.2300  0.0892  0.1138
23657SOL    HW172412   4.908   7.017  11.804 -1.5180 -0.3406  1.3059
23657SOL    HW272413   4.948   6.943  11.678  1.2942  0.7380  1.4993
23658SOL     OW72414   3.429   6.754  10.245  0.3193 -0.2487  0.1790
23658SOL    HW172415   3.429   6.659  10.248  0.6552 -0.2368  0.9439
23658SOL    HW272416   3.346   6.779  10.286  1.4045 -0.1980  2.5269
23659SOL     OW72417   6.512   0.141  11.728 -0.1058  0.3497 -0.3952
23659SOL    HW172418   6.567   0.130  11.805 -0.1443 -2.1588 -0.6268
23659SOL    HW272419   6.571   0.176  11.661  0.2059  1.4311  0.4108
23660SOL     OW72420   5.343   7.192  11.120 -0.1575  0.0973 -0.2973
23660SOL    HW172421   5.409   7.213  11.185 -0.0278 -0.3501 -0.2832
23660SOL    HW272422   5.393   7.176  11.039  0.1207 -3.4643  0.4089
23661SOL     OW72423   7.274   7.262  12.171 -0.9971  0.5222 -0.0818
23661SOL    HW172424   7.358   7.220  12.149 -1.6514 -0.0564 -1.6366
23661SOL    HW272425   7.273   7.264  12.266  0.2602 -0.5720 -0.0101
23662SOL     OW72426   5.838   0.594  10.373  0.4932 -0.1361  0.2823
23662SOL    HW172427   5.820   0.568  10.463  3.5580 -0.0104  1.0493
23662SOL    HW272428   5.851   0.511  10.326  0.0351 -0.1783  0.2296
23663SOL     OW72429   0.016   7.087  11.922  0.1028  0.5260  0.7291
23663SOL    HW172430  -0.077   7.078  11.945 -0.0307 -0.9308 -0.2628
23663SOL    HW272431   0.060   7.019  11.973  0.1564 -0.9578 -1.2075
23664SOL     OW72432   7.172   7.272  11.562 -0.5786  0.4233  0.0343
23664SOL    HW172433   7.147   7.207  11.627  3.3012  0.5613  1.9357
23664SOL    HW272434   7.158   7.228  11.478 -2.7836 -0.9271  1.0209
23665SOL     OW72435   6.405   6.363   0.859 -0.5023 -0.0474  0.3125
23665SOL    HW172436   6.484   6.322   0.894 -0.5589 -1.7197 -1.3480
23665SOL    HW272437   6.338   6.348   0.926  0.1469 -0.2484  0.9247
23666SOL     OW72438   7.302   7.264  10.681 -0.1837  0.6931  0.3501
23666SOL    HW172439   7.267   7.260  10.592  0.9055 -1.5488 -0.0474
23666SOL    HW272440   7.294   7.175  10.714  3.4336  0.4102  0.8485
23667SOL     OW72441   5.915   6.498  11.185 -0.8015 -0.7086  0.1747
23667SOL    HW172442   5.856   6.442  11.235 -0.3168 -2.7393 -1.3834
23667SOL    HW272443   5.987   6.517  11.246 -1.2617 -1.3227  0.9262
23668SOL     OW72444   0.036   1.116  12.446  0.0970  0.3240 -0.0124
23668SOL    HW172445  -0.032   1.146  12.507 -0.9629 -1.4258 -0.2719
23668SOL    HW272446   0.043   1.187  12.382 -0.1401  1.3470  1.0604
23669SOL     OW72447   0.690   7.531  12.495  0.3837 -0.3772 -0.2323
23669SOL    HW172448   0.648   7.459  12.543  0.1351 -1.1174 -1.5132
23669SOL    HW272449   0.754   7.487  12.439  1.8771  0.6179  0.6366
23670SOL     OW72450   7.670   0.223   2.149 -0.1708  0.3034 -0.3905
23670SOL    HW172451   7.640   0.279   2.077 -0.8824 -0.1564 -0.4670
23670SOL    HW272452   7.759   0.252   2.166 -0.1673  0.7643 -1.1207
23671SOL     OW72453   0.185   1.395   1.094 -0.0796 -0.7157 -0.3331
23671SOL    HW172454   0.189   1.466   1.030 -1.5321  0.0690  0.3819
23671SOL    HW272455   0.259   1.413   1.153 -0.8491  0.6720  0.2652
23672SOL     OW72456   7.786   0.527   3.255  0.7539  0.4705  0.1926
23672SOL    HW172457   7.800   0.619   3.276  0.2552  0.3147  1.3227
23672SOL    HW272458   7.695   0.511   3.279  0.6124 -0.1344 -0.7132
23673SOL     OW72459   6.077   1.999   2.228 -0.2620 -0.1904  0.1926
23673SOL    HW172460   6.040   2.086   2.220 -1.3454 -0.6477  0.1418
23673SOL    HW272461   6.027   1.958   2.298 -0.4365 -1.1101 -0.4549
23674SOL     OW72462   1.297   2.433   3.370  0.7359  0.0623  0.4606
23674SOL    HW172463   1.271   2.387   3.290  2.1267  0.0556 -0.0147
23674SOL    HW272464   1.266   2.522   3.358 -1.0381 -0.4570  0.9201
23675SOL     OW72465   1.271   1.182  11.284 -0.6425 -0.1209  0.2016
23675SOL    HW172466   1.266   1.150  11.374 -1.0426 -0.4861  0.0522
23675SOL    HW272467   1.357   1.154  11.253 -1.2730 -1.7428 -0.1802
23676SOL     OW72468   0.398   7.783  10.661  0.2907  0.3571 -0.1416
23676SOL    HW172469   0.314   7.824  10.643 -0.2388 -1.0808 -1.0637
23676SOL    HW272470   0.427   7.748  10.577  1.0737 -0.4923  0.4587
23677SOL     OW72471   7.749   0.552  11.422  0.9366 -0.1790  0.1696
23677SOL    HW172472   7.670   0.557  11.368  0.8809 -2.7409 -0.1350
23677SOL    HW272473   7.775   0.643  11.437 -0.9294  0.6674 -1.3883
23678SOL     OW72474   7.395   2.789   1.881 -0.0648 -0.3358 -0.0385
23678SOL    HW172475   7.310   2.809   1.921  1.1061  1.2236  1.8407
23678SOL    HW272476   7.459   2.820   1.945  1.9459 -1.3720 -1.4515
23679SOL     OW72477   5.004   1.244   1.873 -0.6775 -0.3708 -0.1500
23679SOL    HW172478   4.936   1.307   1.895  1.2177  1.6355  0.2554
23679SOL    HW272479   5.078   1.297   1.844  1.1166 -2.3823  0.5031
23680SOL     OW72480   7.682   7.924   1.606  0.3440 -0.1088  0.4348
23680SOL    HW172481   7.746   7.945   1.674  0.9005 -1.5711  0.4081
23680SOL    HW272482   7.703   7.834   1.581 -2.3834 -1.0751  1.1839
23681SOL     OW72483   0.757   0.440   1.987 -0.5317  0.4214 -0.3014
23681SOL    HW172484   0.689   0.395   2.036  0.4311 -1.2044 -0.3557
23681SOL    HW272485   0.728   0.435   1.895 -1.7515  2.4108 -0.0802
23682SOL     OW72486   0.337   2.928   1.560 -0.1649  0.1768 -0.7153
23682SOL    HW172487   0.431   2.922   1.579 -0.4582 -1.2299  0.4558
23682SOL    HW272488   0.307   3.001   1.614  0.1782  0.2969 -0.6826
23683SOL     OW72489   7.070   0.233   1.081 -0.6690 -0.1374  0.3141
23683SOL    HW172490   7.064   0.205   0.989 -1.6764 -2.0511  0.8837
23683SOL    HW272491   7.144   0.184   1.116  0.0334  0.9753  0.4369
23684SOL     OW72492   7.271   2.373   0.863 -0.6174  0.5907  0.1414
23684SOL    HW172493   7.267   2.283   0.895  0.2045  0.4049 -0.2426
23684SOL    HW272494   7.265   2.364   0.768  0.7537  0.8224  0.0132
23685SOL     OW72495   1.223   2.376   0.543  0.1695  0.0328 -0.1581
23685SOL    HW172496   1.314   2.358   0.522  0.5871  2.2606 -0.4437
23685SOL    HW272497   1.175   2.298   0.512  1.6761 -0.1538 -2.1823
23686SOL     OW72498   1.378   7.673   3.188  0.2639 -0.0695  0.3520
23686SOL    HW172499   1.376   7.646   3.096 -1.8412 -0.8088  0.5588
23686SOL    HW272500   1.311   7.741   3.194 -0.3807 -0.7821  1.5533
23687SOL     OW72501   1.009   7.833   1.518 -0.4174  0.3159  0.2831
23687SOL    HW172502   0.945   7.781   1.567 -0.1487 -0.6368 -0.3547
23687SOL    HW272503   1.081   7.847   1.580  0.0381 -1.1007  0.1240
23688SOL     OW72504   0.430   2.894  11.695  0.6174 -0.3820  0.2836
23688SOL    HW172505   0.376   2.815  11.703  0.5038 -0.2522  0.8236
23688SOL    HW272506   0.366   2.966  11.695  0.8268 -0.1545  2.0222
23689SOL     OW72507   0.910   1.991  12.239  0.3823 -0.3106 -0.2141
23689SOL    HW172508   0.917   1.933  12.314  0.7417 -0.1692 -0.1364
23689SOL    HW272509   0.845   1.950  12.182 -0.6798  0.1279  0.6656
23690SOL     OW72510   7.563   6.913   0.833 -0.1929  0.0877 -0.4738
23690SOL    HW172511   7.637   6.852   0.830  0.8110  1.1706  1.0453
23690SOL    HW272512   7.560   6.951   0.745 -0.7200 -1.9608 -1.3861
23691SOL     OW72513   7.803   1.763   1.583  0.0554  0.7414 -0.4246
23691SOL    HW172514   7.731   1.767   1.646 -0.5392  0.0812 -1.0373
23691SOL    HW272515   7.880   1.794   1.632 -0.8176  2.4374 -0.0377
23692SOL     OW72516   0.364   1.209   3.015  0.6256  0.4955 -0.1826
23692SOL    HW172517   0.299   1.202   3.084 -0.3786 -0.6258 -1.1977
23692SOL    HW272518   0.373   1.120   2.981  0.3284  1.1683 -2.1696
23693SOL     OW72519   6.828   1.477   2.380 -0.1044 -0.1356 -0.0878
23693SOL    HW172520   6.824   1.530   2.460  0.1967 -0.2756  0.0219
23693SOL    HW272521   6.894   1.410   2.399 -0.2798 -0.3770 -0.3299
23694SOL     OW72522   6.661   2.514   1.754 -0.3392 -0.4877 -0.3504
23694SOL    HW172523   6.638   2.438   1.702 -0.9354  0.1595 -1.0625
23694SOL    HW272524   6.754   2.529   1.735 -0.1500 -1.1787 -0.0034
23695SOL     OW72525   5.528   0.043  11.152 -0.2053 -0.4921 -0.4343
23695SOL    HW172526   5.437   0.057  11.128 -0.4971 -0.1372  0.8040
23695SOL    HW272527   5.528   0.039  11.248  1.2148  0.6386 -0.3419
23696SOL     OW72528   7.543   0.069   2.566 -0.3958  0.0272 -0.0788
23696SOL    HW172529   7.511  -0.017   2.541  0.5222  0.4753 -3.3571
23696SOL    HW272530   7.633   0.054   2.595 -0.1994 -0.1671 -0.7506
23697SOL     OW72531   0.374   0.849   1.428 -0.2041 -0.7661 -0.0200
23697SOL    HW172532   0.290   0.873   1.389 -0.7101 -1.4568  0.6193
23697SOL    HW272533   0.416   0.933   1.446 -0.8255 -0.4095 -0.1972
23698SOL     OW72534   1.964   7.619   1.467  0.6854  0.6416  0.2309
23698SOL    HW172535   1.886   7.638   1.521  0.5235 -0.0305  0.2407
23698SOL    HW272536   2.015   7.700   1.470  0.7258  0.5895  1.4832
23699SOL     OW72537   0.084   0.276   2.939  0.2451 -0.6982 -0.2457
23699SOL    HW172538   0.087   0.218   2.862  1.4578 -2.4110  1.0245
23699SOL    HW272539   0.168   0.264   2.982  0.0543  1.1456  0.7358
23700SOL     OW72540   7.972   7.377   1.907  0.5480 -0.1202 -0.0305
23700SOL    HW172541   7.895   7.423   1.874 -0.0743 -0.8162  0.3998
23700SOL    HW272542   8.024   7.357   1.829  0.8029  1.2387 -0.2249
23701SOL     OW72543   0.729   7.209   2.463 -0.2735 -0.6237 -0.4326
23701SOL    HW172544   0.650   7.257   2.437  0.0408 -0.1687 -0.5545
23701SOL    HW272545   0.711   7.119   2.438 -1.2832 -0.7634  0.7118
23702SOL     OW72546   0.702   1.176   1.734 -0.0138  0.3123 -0.1820
23702SOL    HW172547   0.739   1.264   1.726 -2.6405  1.5756  0.4594
23702SOL    HW272548   0.612   1.190   1.764  0.0747 -2.6818  2.0140
23703SOL     OW72549   7.056   7.433   0.621  0.0642 -0.0835 -0.3441
23703SOL    HW172550   7.110   7.513   0.623  0.3189 -0.2022 -1.6968
23703SOL    HW272551   7.001   7.440   0.699  2.3323 -0.1863  1.3822
23704SOL     OW72552   1.134   1.869   3.573 -0.3924  0.1752  0.0147
23704SOL    HW172553   1.096   1.949   3.537  0.3677  0.0756 -1.0514
23704SOL    HW272554   1.161   1.894   3.661 -1.7086  0.6011  0.3322
23705SOL     OW72555   6.607   1.040   3.091  0.1153 -0.3728 -0.2029
23705SOL    HW172556   6.664   1.107   3.130 -1.5701  0.9071  0.1835
23705SOL    HW272557   6.606   0.970   3.156  0.1046  0.2330  0.4678
23706SOL     OW72558   0.188   0.001   0.832  0.3397  0.5595 -0.0382
23706SOL    HW172559   0.198   0.034   0.743 -1.1655  1.0100 -0.0708
23706SOL    HW272560   0.116  -0.062   0.827 -0.3680  1.2447  0.9950
23707SOL     OW72561   6.525   1.598   1.416  0.0559  0.7384 -0.2169
23707SOL    HW172562   6.442   1.581   1.373 -1.0855 -0.1729  2.1766
23707SOL    HW272563   6.591   1.584   1.348 -1.5267 -2.1629 -1.3179
23708SOL     OW72564   7.830   2.149  10.588  0.2568 -0.1467  0.1713
23708SOL    HW172565   7.877   2.105  10.659 -1.0337 -0.9981  0.5233
23708SOL    HW272566   7.789   2.078  10.539  0.0415  0.5279 -0.6420
23709SOL     OW72567   1.593   0.580   2.384 -0.1730 -0.8104  0.4599
23709SOL    HW172568   1.571   0.656   2.331  2.0171  0.4602  1.2455
23709SOL    HW272569   1.556   0.600   2.470 -0.4521 -1.1151  0.4138
23710SOL     OW72570   0.981   1.062   2.914  0.3042  0.0735 -0.6725
23710SOL    HW172571   0.983   1.037   3.006 -2.6009  1.6066 -0.0905
23710SOL    HW272572   0.897   1.029   2.882  1.3382 -0.6173 -2.8851
23711SOL     OW72573   7.789   7.179   0.912  0.1417  0.4986  0.2049
23711SOL    HW172574   7.818   7.138   0.994 -1.8968 -0.4705  0.5030
23711SOL    HW272575   7.804   7.273   0.926  0.4629  0.2834  1.4101
23712SOL     OW72576   7.452   1.707   1.189  0.0238  0.2920 -0.6668
23712SOL    HW172577   7.518   1.731   1.253  1.2391 -0.6701 -1.5075
23712SOL    HW272578   7.479   1.621   1.157 -1.4724  0.0062 -1.2659
23713SOL     OW72579   6.489   2.870   2.158 -0.0008  0.4787 -0.3313
23713SOL    HW172580   6.478   2.963   2.140  0.0247  1.0418  2.2505
23713SOL    HW272581   6.461   2.826   2.077  0.0221  2.6919 -1.6089
23714SOL     OW72582   7.390   1.912   1.599 -0.5552  0.4299  0.2629
23714SOL    HW172583   7.378   1.920   1.694 -1.9221  2.6769 -0.0200
23714SOL    HW272584   7.302   1.895   1.566 -0.2829  0.8451 -0.6882
23715SOL     OW72585   6.958   0.996   4.314  0.2167 -0.6296 -0.4235
23715SOL    HW172586   7.020   0.925   4.298  0.5963 -0.2310 -0.7874
23715SOL    HW272587   7.009   1.076   4.296 -0.7398 -0.3274 -1.8863
23716SOL     OW72588   0.395   1.554   0.534 -0.0484 -0.4363  0.2487
23716SOL    HW172589   0.350   1.472   0.551  1.5800 -1.1875  1.1347
23716SOL    HW272590   0.464   1.558   0.599  1.5941  0.3265 -1.4411
23717SOL     OW72591   1.384   1.831  11.975 -0.4258  0.2505  0.3023
23717SOL    HW172592   1.334   1.772  12.032 -0.5308  1.7494  1.8546
23717SOL    HW272593   1.340   1.824  11.890 -0.8185 -1.3994  0.6003
23718SOL     OW72594   7.336   2.427   0.534  0.6531 -0.6632 -0.1536
23718SOL    HW172595   7.295   2.475   0.462  1.4580 -0.3534 -0.4201
23718SOL    HW272596   7.417   2.474   0.551 -0.4053  0.4373  2.2741
23719SOL     OW72597   7.014   7.798   1.848 -0.2194  0.1442  0.4410
23719SOL    HW172598   7.063   7.751   1.915 -1.5742 -1.0644  0.6115
23719SOL    HW272599   6.946   7.845   1.896 -0.1892  0.5988  0.0528
23720SOL     OW72600   7.066   2.061   1.508 -0.5680  0.3363  0.1628
23720SOL    HW172601   7.089   1.979   1.554 -3.3664 -0.8393 -0.3175
23720SOL    HW272602   7.138   2.075   1.447  0.5302 -1.1504  1.0376
23721SOL     OW72603   0.174   1.331   1.449  0.0683 -0.6762  0.0113
23721SOL    HW172604   0.266   1.323   1.475  0.2118 -0.5586 -0.4501
23721SOL    HW272605   0.125   1.309   1.528  0.4840 -1.4357  0.0672
23722SOL     OW72606   0.652   2.502  11.066  0.0054  0.8890 -0.1943
23722SOL    HW172607   0.630   2.542  11.150  0.2110  1.0635 -0.2250
23722SOL    HW272608   0.567   2.488  11.024 -0.1092  0.6226  0.1229
23723SOL     OW72609   7.633   2.546   1.551 -0.3745 -0.0803 -0.3172
23723SOL    HW172610   7.668   2.616   1.605 -0.0497 -0.9312  0.5938
23723SOL    HW272611   7.638   2.581   1.461  0.1537  0.8931  0.0735
23724SOL     OW72612   0.225   7.124   0.701 -0.1154 -0.6544  0.1379
23724SOL    HW172613   0.295   7.187   0.685 -0.4690 -0.1189  0.6154
23724SOL    HW272614   0.269   7.040   0.711  0.5081 -0.2548  0.8856
23725SOL     OW72615   6.930   0.503  12.340 -0.0020  0.2351  0.4633
23725SOL    HW172616   6.960   0.423  12.297  0.4461  0.6617 -0.0589
23725SOL    HW272617   6.840   0.514  12.311  0.9339  1.7124 -2.3485
23726SOL     OW72618   6.729   6.679   1.207 -0.8749 -0.7923  0.8953
23726SOL    HW172619   6.651   6.666   1.152 -0.2215 -0.2831 -0.1999
23726SOL    HW272620   6.735   6.600   1.260 -1.3574 -1.4566 -0.0043
23727SOL     OW72621   7.540   2.155   2.271  0.3231 -0.6853  0.0805
23727SOL    HW172622   7.516   2.169   2.363 -1.7600 -0.6952 -0.4181
23727SOL    HW272623   7.492   2.076   2.246 -1.2474  0.7574 -1.7209
23728SOL     OW72624   7.109   1.809   2.016 -0.2033 -0.7384 -0.0252
23728SOL    HW172625   7.042   1.878   2.015 -0.2554 -0.7803 -1.6986
23728SOL    HW272626   7.059   1.727   2.014 -0.1180 -0.7954  0.1680
23729SOL     OW72627   1.763   0.617   2.091 -0.1405 -0.0397  0.1402
23729SOL    HW172628   1.674   0.632   2.059 -0.0903 -1.3343 -0.6483
23729SOL    HW272629   1.774   0.522   2.089  0.2331 -0.1342  3.0858
23730SOL     OW72630   7.755   0.818   3.722  0.0789  0.7672  0.3121
23730SOL    HW172631   7.696   0.786   3.653 -0.6749  1.5585  0.5619
23730SOL    HW272632   7.836   0.840   3.677  0.8191 -1.9108  0.2014
23731SOL     OW72633   0.132   1.698   3.305 -0.2548  0.2433  0.7583
23731SOL    HW172634   0.080   1.618   3.310  0.8704 -0.4871  1.0458
23731SOL    HW272635   0.093   1.756   3.371 -3.2057  1.2967 -1.6306
23732SOL     OW72636   7.593   3.567   2.648  0.4921  0.6836  0.4449
23732SOL    HW172637   7.685   3.583   2.670  0.5342  1.1991 -0.0715
23732SOL    HW272638   7.556   3.655   2.638 -0.5979  0.5520  2.7494
23733SOL     OW72639   0.589   1.870   3.663 -0.1079 -0.1296 -0.1703
23733SOL    HW172640   0.621   1.796   3.715 -1.8332 -0.2131  0.8741
23733SOL    HW272641   0.495   1.853   3.654 -0.3137  1.2916 -1.0260
23734SOL     OW72642   0.528   2.836   4.525  0.5061  0.3296  0.5358
23734SOL    HW172643   0.442   2.821   4.565  0.8006  0.8025  1.3714
23734SOL    HW272644   0.547   2.756   4.477  0.3542 -0.4524  1.7608
23735SOL     OW72645   6.669   2.283   1.960 -0.0862 -0.1953  0.0230
23735SOL    HW172646   6.593   2.333   1.991 -1.4336 -2.4876  0.6856
23735SOL    HW272647   6.745   2.335   1.986 -1.3992  1.5352  0.5548
23736SOL     OW72648   0.720   1.976   3.446  0.7190 -0.6557 -0.2163
23736SOL    HW172649   0.696   1.929   3.366 -1.1152  0.1800 -0.1922
23736SOL    HW272650   0.675   1.929   3.516 -1.9633  1.5518 -0.2914
23737SOL     OW72651   7.943   3.476   2.715  0.0093  0.0253  0.1465
23737SOL    HW172652   8.003   3.521   2.655 -0.3417 -1.1213 -1.1213
23737SOL    HW272653   7.918   3.543   2.778 -0.0707  1.4733 -1.3427
23738SOL     OW72654   7.204   1.898   3.022 -0.0991 -0.0113  0.1779
23738SOL    HW172655   7.208   1.861   3.110  0.3379  0.9838  0.5754
23738SOL    HW272656   7.113   1.926   3.013 -0.8282 -2.3572 -0.6390
23739SOL     OW72657   7.804   1.412   2.617 -0.6047  0.4794 -0.3174
23739SOL    HW172658   7.772   1.325   2.594 -1.4681  0.9825 -1.0952
23739SOL    HW272659   7.739   1.472   2.580  0.7454  1.5103 -1.0804
23740SOL     OW72660   1.623   7.481   0.801  0.0408  0.4529 -0.1931
23740SOL    HW172661   1.631   7.409   0.865  2.3223  0.3129 -0.5847
23740SOL    HW272662   1.531   7.509   0.809 -0.1661 -0.6254  1.9851
23741SOL     OW72663   7.115   1.175   3.958 -0.4197 -0.5574 -0.1960
23741SOL    HW172664   7.046   1.154   3.895  0.2749 -0.8630 -0.8697
23741SOL    HW272665   7.086   1.257   3.999 -2.5601 -2.0856  1.5778
23742SOL     OW72666   0.811   6.677   2.336 -0.1789  0.0592 -0.8647
23742SOL    HW172667   0.801   6.626   2.417  0.3838  1.3250  0.0402
23742SOL    HW272668   0.741   6.645   2.279 -1.2517 -0.1357  0.5111
23743SOL     OW72669   0.906   2.577   4.706  0.2012  0.0657 -0.0157
23743SOL    HW172670   0.949   2.661   4.690  1.2167 -0.4014  0.2197
23743SOL    HW272671   0.863   2.556   4.623  1.1707  0.1133 -0.5418
23744SOL     OW72672   0.079   6.686   2.523  0.6111 -0.1244 -0.4414
23744SOL    HW172673   0.077   6.731   2.608 -1.6042 -1.2799  0.2138
23744SOL    HW272674   0.129   6.606   2.539 -0.1691 -0.5551 -0.0517
23745SOL     OW72675   6.397   3.541   3.964  0.0399 -0.1811 -0.2467
23745SOL    HW172676   6.429   3.621   4.006 -0.2483 -0.8306  1.2698
23745SOL    HW272677   6.302   3.553   3.958 -0.1326 -0.8409  0.9753
23746SOL     OW72678   0.147   0.314   2.626 -0.4374 -0.5150 -0.4342
23746SOL    HW172679   0.144   0.369   2.548  0.9290 -0.8866 -0.7751
23746SOL    HW272680   0.063   0.329   2.669 -0.7853  0.5095 -1.4171
23747SOL     OW72681   6.761   1.678   3.685  0.1071  0.2648  0.8377
23747SOL    HW172682   6.781   1.625   3.608 -0.6007 -2.6268  2.4766
23747SOL    HW272683   6.666   1.687   3.684  0.1264  0.5293  1.1864
23748SOL     OW72684   2.338   7.820   3.523 -0.3593 -0.1627 -0.0275
23748SOL    HW172685   2.367   7.798   3.612  0.5943 -0.1205 -0.3144
23748SOL    HW272686   2.293   7.741   3.492 -0.1951 -0.3825  0.2893
23749SOL     OW72687   0.038   1.401   3.915 -0.2818  0.5677 -0.0909
23749SOL    HW172688   0.087   1.453   3.852 -0.5533 -0.7951 -1.5040
23749SOL    HW272689  -0.046   1.446   3.924 -0.5149  0.3972 -1.2846
23750SOL     OW72690   0.201   7.978   2.369  0.0324 -0.5699  0.6162
23750SOL    HW172691   0.254   8.001   2.293 -0.8978 -1.2205 -0.2517
23750SOL    HW272692   0.237   8.031   2.440  0.6838  0.3264 -0.3536
23751SOL     OW72693   7.278   2.909   2.892 -0.2634 -0.5332  0.2030
23751SOL    HW172694   7.298   2.992   2.936  0.2829 -0.1309 -0.7510
23751SOL    HW272695   7.212   2.933   2.827 -1.3889 -1.2003  1.0693
23752SOL     OW72696   5.556   1.288   2.478  0.3594  0.0283  0.2082
23752SOL    HW172697   5.646   1.307   2.503  0.9516 -0.9660 -1.0552
23752SOL    HW272698   5.522   1.371   2.445  1.2415  0.1278 -0.4886
23753SOL     OW72699   7.109   1.822   1.645  0.0113 -0.2176 -0.4394
23753SOL    HW172700   7.161   1.742   1.642  0.4874 -0.0725  1.9515
23753SOL    HW272701   7.027   1.797   1.687  0.5895  0.6907  1.3451
23754SOL     OW72702   0.759   1.411   1.903  0.1563  0.4300  0.1634
23754SOL    HW172703   0.705   1.362   1.966  1.1926 -1.4584 -0.3280
23754SOL    HW272704   0.849   1.386   1.925  0.6174  0.8535 -1.1683
23755SOL     OW72705   2.140   1.870   2.569 -0.5111 -0.8389 -0.3485
23755SOL    HW172706   2.219   1.819   2.588  0.3469  0.7076  0.3774
23755SOL    HW272707   2.168   1.961   2.577 -2.4076 -0.2646  0.0228
23756SOL     OW72708   7.313   2.049   3.509  0.3057  0.5076 -0.1700
23756SOL    HW172709   7.320   2.033   3.415  0.4132  2.0515 -0.4500
23756SOL    HW272710   7.402   2.032   3.542  0.4187  0.5523 -0.4453
23757SOL     OW72711   1.859   0.336   3.606 -0.6087  0.2202 -0.0886
23757SOL    HW172712   1.955   0.339   3.598 -0.6056  2.0628  0.3582
23757SOL    HW272713   1.844   0.339   3.700 -1.1187 -0.0496 -0.1617
23758SOL     OW72714   7.143   3.032   2.381 -0.2027  0.1032 -0.7907
23758SOL    HW172715   7.065   3.054   2.433 -0.3761  0.4776 -1.2005
23758SOL    HW272716   7.108   2.984   2.305  0.0928 -0.8554 -0.3335
23759SOL     OW72717   0.038   0.598   3.013  0.1661  0.0550  0.3686
23759SOL    HW172718  -0.030   0.556   2.960  0.3715 -0.7279  0.7097
23759SOL    HW272719   0.030   0.691   2.992 -1.1469  0.0070  0.5436
23760SOL     OW72720   1.659   2.065   4.950 -0.1858 -0.3884  0.2713
23760SOL    HW172721   1.709   2.001   4.900 -0.2133 -1.2751  1.3407
23760SOL    HW272722   1.726   2.124   4.986 -0.1327 -0.0133 -0.4271
23761SOL     OW72723   0.071   1.329   4.411  0.6000  0.4432 -0.4549
23761SOL    HW172724  -0.019   1.361   4.423  1.2517  2.2187 -0.0217
23761SOL    HW272725   0.062   1.234   4.410 -1.3011  0.5725 -0.5614
23762SOL     OW72726   0.716   1.704   3.878  0.4050  0.3883 -0.1178
23762SOL    HW172727   0.699   1.636   3.943 -0.9751  1.2265  0.4313
23762SOL    HW272728   0.760   1.774   3.926 -1.2593  1.3153  0.1272
23763SOL     OW72729   0.940   0.389   3.625 -0.1983 -0.1459 -0.6519
23763SOL    HW172730   0.942   0.296   3.650  0.2893  0.5752  2.4890
23763SOL    HW272731   0.851   0.402   3.591 -1.1753 -1.2901  1.2478
23764SOL     OW72732   0.245   1.762   3.596 -0.2876 -0.3109 -0.3542
23764SOL    HW172733   0.183   1.730   3.661 -2.1517 -0.3201 -2.0496
23764SOL    HW272734   0.319   1.702   3.601 -0.6625 -0.6811  1.2838
23765SOL     OW72735   1.483   0.955   2.941  0.2517  0.7582 -0.2732
23765SOL    HW172736   1.483   1.048   2.965  3.7241  1.2783 -1.7990
23765SOL    HW272737   1.559   0.919   2.984  0.4494 -0.7588 -1.7969
23766SOL     OW72738   7.306   2.390   1.198 -0.7315 -1.1197  1.3486
23766SOL    HW172739   7.285   2.479   1.226  0.1988  0.9153 -3.4761
23766SOL    HW272740   7.402   2.389   1.193 -0.8174 -1.1574 -1.7132
23767SOL     OW72741   0.350   1.840   3.982 -0.0929  0.1185 -0.1526
23767SOL    HW172742   0.260   1.851   3.953  0.0822  2.6628  0.0247
23767SOL    HW272743   0.347   1.766   4.044 -1.9559 -0.0875 -0.4508
23768SOL     OW72744   0.420   0.378   3.407  0.5561  0.3281  0.4484
23768SOL    HW172745   0.356   0.327   3.456  1.0387 -0.2318  0.5133
23768SOL    HW272746   0.483   0.313   3.375  0.6317  0.7651 -0.3260
23769SOL     OW72747   2.463   0.199   3.735  0.1988  0.0008  0.4753
23769SOL    HW172748   2.554   0.172   3.750  0.5080  0.2984 -0.7140
23769SOL    HW272749   2.443   0.165   3.647 -0.4927  0.8196  0.3070
23770SOL     OW72750   0.847   2.303   3.339  0.0204 -0.7562  0.2580
23770SOL    HW172751   0.763   2.262   3.362 -0.4282 -0.6712 -1.1496
23770SOL    HW272752   0.845   2.311   3.244  1.0956  0.4134  0.3020
23771SOL     OW72753   7.347   0.084   2.332  0.1610  0.1695 -0.1866
23771SOL    HW172754   7.370   0.176   2.316  1.0171  0.1782  0.9378
23771SOL    HW272755   7.430   0.037   2.326 -0.4651 -0.7708 -2.1082
23772SOL     OW72756   7.987   0.195   3.721  0.3666 -0.0738  0.5242
23772SOL    HW172757   8.021   0.173   3.808 -1.3598  0.3099  1.3479
23772SOL    HW272758   7.934   0.120   3.696  0.5529 -0.0238 -0.0379
23773SOL     OW72759   4.927   0.324   2.976  0.0566 -0.1775  0.1639
23773SOL    HW172760   4.975   0.399   2.940 -0.4040 -0.3963 -0.9380
23773SOL    HW272761   4.940   0.331   3.071  0.6633  0.8549  0.0221
23774SOL     OW72762   0.094   1.952   2.818 -0.2075  0.3935 -0.2650
23774SOL    HW172763   0.031   1.891   2.857 -0.8997  1.4612  0.3234
23774SOL    HW272764   0.166   1.957   2.881  0.8351 -1.2975 -1.2092
23775SOL     OW72765   1.262   0.013   3.658 -0.1631 -0.4943  0.0045
23775SOL    HW172766   1.295  -0.053   3.597  1.4316 -0.2332  0.5299
23775SOL    HW272767   1.330   0.081   3.657 -1.9182  1.3428 -0.8115
23776SOL     OW72768   0.086   3.417   3.463  0.2016  0.2385 -0.4905
23776SOL    HW172769   0.044   3.503   3.469 -0.3509 -0.1159  1.6000
23776SOL    HW272770   0.016   3.356   3.441  0.1182  0.0184  0.3466
23777SOL     OW72771   7.793   3.164   3.203  0.2441 -0.0773  0.4893
23777SOL    HW172772   7.868   3.130   3.154  1.6122  0.9881  1.7442
23777SOL    HW272773   7.717   3.124   3.161  1.3944 -0.0181 -1.8050
23778SOL     OW72774   0.006   1.767   2.991 -0.0366 -0.3880 -0.4332
23778SOL    HW172775  -0.067   1.707   3.005 -0.8371  0.1063 -2.1767
23778SOL    HW272776   0.014   1.816   3.073 -2.4148  0.3004 -0.5513
23779SOL     OW72777   0.840   1.190   5.856  0.2516  0.0744 -0.3450
23779SOL    HW172778   0.856   1.277   5.891  2.8584 -0.3870 -0.1366
23779SOL    HW272779   0.852   1.200   5.761  1.5170 -0.1804 -0.2346
23780SOL     OW72780   7.435   6.597   2.567  0.1030 -0.0054  0.6590
23780SOL    HW172781   7.386   6.585   2.486  1.0400 -1.8161  0.3154
23780SOL    HW272782   7.478   6.682   2.558 -0.2108  0.0346 -0.5105
23781SOL     OW72783   6.305   1.690   2.465 -0.1981  0.2643  0.0621
23781SOL    HW172784   6.356   1.654   2.392  0.9880 -1.3956  1.6141
23781SOL    HW272785   6.219   1.648   2.456  0.4525 -1.2642  0.4912
23782SOL     OW72786   6.765   2.724   4.663 -0.4277  0.0804 -0.2109
23782SOL    HW172787   6.687   2.776   4.644 -0.0107  0.1422 -1.9687
23782SOL    HW272788   6.839   2.782   4.644  0.0327 -0.7342 -1.0153
23783SOL     OW72789   7.427   3.051   3.927 -0.2625  0.1620  0.1282
23783SOL    HW172790   7.434   3.102   3.847 -1.0319 -0.3104 -0.2582
23783SOL    HW272791   7.333   3.039   3.940 -0.2647  1.8590  2.1624
23784SOL     OW72792   7.499   2.299   1.532 -0.1286  0.1115 -0.3568
23784SOL    HW172793   7.528   2.374   1.480 -0.5127  1.6889  1.5866
23784SOL    HW272794   7.526   2.319   1.621 -0.3853 -2.0286  0.2590
23785SOL     OW72795   0.726   2.579   2.480  0.0520 -0.3029 -0.5750
23785SOL    HW172796   0.661   2.648   2.492  0.8589  0.2189  1.1392
23785SOL    HW272797   0.688   2.502   2.521  0.1211 -0.2426 -0.3958
23786SOL     OW72798   6.209   1.228   2.976 -0.3187 -0.2250  0.9131
23786SOL    HW172799   6.255   1.150   3.008 -0.6160  0.1865  2.4392
23786SOL    HW272800   6.139   1.194   2.920  0.0815 -1.0046  0.8794
23787SOL     OW72801   7.244   0.422   1.761 -0.4092  0.1415  0.3476
23787SOL    HW172802   7.222   0.383   1.845  0.3549  1.9056  1.4085
23787SOL    HW272803   7.161   0.420   1.711 -1.1995  0.2756  1.6212
23788SOL     OW72804   0.165   1.231   5.840  0.4465  0.8102 -0.1147
23788SOL    HW172805   0.089   1.280   5.871 -0.4873 -1.5316  1.6104
23788SOL    HW272806   0.219   1.218   5.918  1.9063  1.1604 -1.0246
23789SOL     OW72807   7.174   1.951   5.205 -0.0289  0.1067 -0.2211
23789SOL    HW172808   7.162   2.046   5.198 -2.6192 -0.1698 -0.5875
23789SOL    HW272809   7.246   1.932   5.145 -0.2459  1.7380 -1.0689
23790SOL     OW72810   1.399   0.596   4.456  0.2573  0.3661  0.4503
23790SOL    HW172811   1.489   0.626   4.449  0.1467  0.5368 -0.2800
23790SOL    HW272812   1.396   0.516   4.404  0.2367 -0.2223  1.3324
23791SOL     OW72813   6.513   2.883   3.578  0.3189  0.4187 -0.0705
23791SOL    HW172814   6.489   2.931   3.499  0.5066  0.6851  0.0324
23791SOL    HW272815   6.599   2.919   3.602 -0.8153  2.1499  1.6733
23792SOL     OW72816   0.198   1.356   6.402  0.2187 -0.0588 -0.5420
23792SOL    HW172817   0.266   1.298   6.367  1.0492  0.0387  0.8229
23792SOL    HW272818   0.148   1.384   6.325  1.6744 -0.1888 -1.5809
23793SOL     OW72819   0.301   1.862   5.948  0.4094  0.0706  0.0620
23793SOL    HW172820   0.262   1.818   5.873  1.2805 -0.1523 -0.2817
23793SOL    HW272821   0.275   1.954   5.940  0.3064  0.0009 -0.3896
23794SOL     OW72822   1.855   0.383   5.590  0.3257 -0.4017  0.2313
23794SOL    HW172823   1.878   0.297   5.625  2.0244 -0.4217 -0.8280
23794SOL    HW272824   1.921   0.442   5.624 -0.1783  0.2782  0.0550
23795SOL     OW72825   6.495   3.308   5.175 -0.6288  0.2719 -0.6271
23795SOL    HW172826   6.526   3.274   5.259 -0.5413  1.1189 -0.3057
23795SOL    HW272827   6.413   3.261   5.159  0.2585 -1.2170 -0.9660
23796SOL     OW72828   7.325   0.434   4.170 -0.0928 -0.0904 -0.2804
23796SOL    HW172829   7.265   0.439   4.096 -1.8975  2.5607  1.1862
23796SOL    HW272830   7.273   0.397   4.242  0.9426 -0.5673  0.2528
23797SOL     OW72831   1.810   2.058   3.397  0.2027  0.4376  0.2333
23797SOL    HW172832   1.791   2.063   3.491  0.9091 -1.5644  0.5235
23797SOL    HW272833   1.725   2.076   3.355 -0.2253  0.9036  1.2565
23798SOL     OW72834   0.969   7.925   5.214  0.3157  0.3372 -0.1566
23798SOL    HW172835   0.900   7.937   5.148 -1.9885 -0.1875  1.9951
23798SOL    HW272836   0.921   7.911   5.296  3.0304 -0.0768  1.4704
23799SOL     OW72837   6.274   1.359   4.453 -0.5747  0.0726  0.0514
23799SOL    HW172838   6.183   1.382   4.436 -1.4521 -1.4476  2.2603
23799SOL    HW272839   6.309   1.432   4.504 -1.0352 -0.0554  0.5524
23800SOL     OW72840   7.216   1.926   6.864  0.0147  0.0468 -0.1547
23800SOL    HW172841   7.235   2.018   6.882 -1.1848 -0.3818  4.6180
23800SOL    HW272842   7.126   1.926   6.831 -0.4583  0.5721  1.0746
23801SOL     OW72843   2.085   7.855   4.921 -0.1275  0.4584  0.1988
23801SOL    HW172844   1.995   7.868   4.951 -0.3731  0.2635 -0.4218
23801SOL    HW272845   2.135   7.927   4.960 -0.4602  0.3067  0.9178
23802SOL     OW72846   7.893   0.768   3.321  0.3399 -0.0467 -0.1644
23802SOL    HW172847   7.841   0.809   3.391 -0.9234 -1.3212 -0.3045
23802SOL    HW272848   7.884   0.827   3.247  0.3728  0.5140  0.2673
23803SOL     OW72849   7.699   3.581   4.634 -0.0425 -0.3118  0.2923
23803SOL    HW172850   7.690   3.519   4.561  1.4150  0.5211 -0.6274
23803SOL    HW272851   7.776   3.551   4.681 -0.7067 -0.5597  1.2503
23804SOL     OW72852   0.416   0.363   4.496  0.2240 -0.0820  0.6440
23804SOL    HW172853   0.510   0.350   4.510  0.5040  2.0705  1.1217
23804SOL    HW272854   0.411   0.411   4.413 -0.2798  1.4733  1.5398
23805SOL     OW72855   6.195   2.856   3.531 -0.3051  0.0947 -0.2537
23805SOL    HW172856   6.105   2.884   3.518 -1.0077 -2.3327 -1.0941
23805SOL    HW272857   6.248   2.927   3.493 -1.8721  0.8981 -1.0297
23806SOL     OW72858   7.679   7.552   5.325  0.2554  0.4033 -0.7274
23806SOL    HW172859   7.597   7.580   5.366  0.6273  1.4984 -0.6879
23806SOL    HW272860   7.654   7.528   5.236 -0.0890  0.9335 -0.7804
23807SOL     OW72861   7.533   2.027   4.180  0.0147  0.1296  0.0650
23807SOL    HW172862   7.438   2.033   4.197  0.1625  0.5930  0.7683
23807SOL    HW272863   7.568   1.985   4.259  0.4890  0.6401  0.1337
23808SOL     OW72864   6.068   1.010   6.023  0.1070  0.1247  0.3942
23808SOL    HW172865   6.125   1.016   6.099  1.1699  1.3620 -0.4591
23808SOL    HW272866   6.104   0.938   5.971  1.0682  1.0323 -0.2420
23809SOL     OW72867   6.730   1.549   5.005 -0.4145  0.0775  0.6364
23809SOL    HW172868   6.718   1.476   5.066 -1.2966  0.4297  0.8849
23809SOL    HW272869   6.654   1.544   4.947 -1.0249  1.4265  1.2950
23810SOL     OW72870   7.704   1.025   5.307 -0.0746 -0.1293  0.7481
23810SOL    HW172871   7.764   1.099   5.318  0.3972 -0.4450  0.3730
23810SOL    HW272872   7.661   1.042   5.223  1.6917 -1.3831 -0.5075
23811SOL     OW72873   7.631   5.478   3.249 -0.4488 -0.6126  0.6466
23811SOL    HW172874   7.554   5.461   3.194  0.4675  0.1277 -0.9172
23811SOL    HW272875   7.704   5.437   3.202  0.5590  1.0573  0.6645
23812SOL     OW72876   7.182   1.038   3.574 -0.9470 -0.1842 -0.9450
23812SOL    HW172877   7.227   0.956   3.591 -1.2349 -0.4800 -1.5573
23812SOL    HW272878   7.250   1.096   3.538 -0.3702  0.4016  0.9643
23813SOL     OW72879   6.726   1.869   3.863  0.3493  0.3296  0.3507
23813SOL    HW172880   6.780   1.809   3.811  1.3017  2.2752 -1.0230
23813SOL    HW272881   6.787   1.936   3.893 -0.7541  0.8718  1.4741
23814SOL     OW72882   6.972   2.560   4.369 -0.2257  0.1289  0.2380
23814SOL    HW172883   6.883   2.550   4.336  0.1173 -1.6054 -0.2398
23814SOL    HW272884   7.028   2.558   4.291  0.3363 -0.3098  0.6432
23815SOL     OW72885   0.369   2.249   5.654 -0.5034 -0.1923 -0.0533
23815SOL    HW172886   0.361   2.320   5.718 -0.7108 -0.4895  0.2527
23815SOL    HW272887   0.339   2.288   5.572 -2.5906 -0.4805  0.5147
23816SOL     OW72888   6.408   3.179   4.897 -0.1966 -0.1778  0.3558
23816SOL    HW172889   6.480   3.162   4.837 -0.3625  0.9996 -0.2148
23816SOL    HW272890   6.441   3.249   4.954 -1.2744  1.2123 -0.6711
23817SOL     OW72891   1.119   0.949   3.816  0.3674  0.1833 -0.0254
23817SOL    HW172892   1.057   0.909   3.876  0.9252  0.0079  0.4382
23817SOL    HW272893   1.141   1.033   3.857  1.0226 -0.0960  0.1891
23818SOL     OW72894   6.964   7.989   6.597  0.5653  0.3941 -0.2206
23818SOL    HW172895   6.902   8.018   6.665  2.5574  0.2950  1.7666
23818SOL    HW272896   6.975   7.895   6.614  2.0762  0.6282  0.2018
23819SOL     OW72897   6.187   0.153   5.655 -0.2051  0.2255 -0.4419
23819SOL    HW172898   6.264   0.209   5.669  0.6400 -0.4495 -2.0431
23819SOL    HW272899   6.224   0.067   5.636 -1.1335  0.4132 -3.8022
23820SOL     OW72900   0.156   2.103   3.805  0.2445  0.0674  0.0612
23820SOL    HW172901   0.104   2.036   3.848 -1.4690  2.1300  1.4309
23820SOL    HW272902   0.225   2.125   3.868 -0.9813  1.5707  0.9800
23821SOL     OW72903   1.200   7.546   4.790  0.1471  0.3708 -0.2599
23821SOL    HW172904   1.172   7.583   4.706 -0.0150  0.5820 -0.1133
23821SOL    HW272905   1.120   7.541   4.842  0.1737 -0.1391 -0.2585
23822SOL     OW72906   0.315   1.067   5.381 -0.0198 -0.4365  0.2279
23822SOL    HW172907   0.235   1.056   5.329 -0.7230  0.1118  1.1643
23822SOL    HW272908   0.367   1.131   5.331  0.3120 -1.5462 -0.8971
23823SOL     OW72909   7.723   7.742   4.458  0.0399 -0.3726 -0.2949
23823SOL    HW172910   7.682   7.696   4.530 -0.7025  2.0908  0.9827
23823SOL    HW272911   7.817   7.728   4.471 -0.1753 -2.4105 -0.6613
23824SOL     OW72912   7.131   3.025   5.183 -0.4881  0.7342 -0.1323
23824SOL    HW172913   7.100   3.063   5.101 -1.3636  2.6738  1.0258
23824SOL    HW272914   7.224   3.008   5.168 -0.7065  0.7209 -1.6170
23825SOL     OW72915   0.775   2.346   4.795  0.4655  0.3507  0.8482
23825SOL    HW172916   0.695   2.365   4.844  1.2446  0.3649  2.1945
23825SOL    HW272917   0.817   2.432   4.783  0.6449  0.2648  0.8479
23826SOL     OW72918   7.646   7.888   5.749  0.1325 -0.3931  0.4788
23826SOL    HW172919   7.725   7.927   5.787 -0.9498  2.0612  0.4660
23826SOL    HW272920   7.667   7.877   5.656 -0.1429  2.3150  0.0004
23827SOL     OW72921   6.363   1.002   3.000 -0.2057  0.7745 -0.1994
23827SOL    HW172922   6.354   0.907   2.986 -0.7454  0.8833 -0.6343
23827SOL    HW272923   6.448   1.012   3.042  0.4606  0.2192 -1.3656
23828SOL     OW72924   5.904   1.897   3.191  0.7428 -0.5196  0.2358
23828SOL    HW172925   5.877   1.984   3.162  1.0024 -0.2673  0.7429
23828SOL    HW272926   5.982   1.912   3.244  0.6662 -1.0417  0.5066
23829SOL     OW72927   7.537   2.761   3.246  0.1082  0.2627 -0.2670
23829SOL    HW172928   7.559   2.815   3.322  0.8239  0.6015 -0.7051
23829SOL    HW272929   7.452   2.794   3.216 -0.9781 -0.9401  1.3440
23830SOL     OW72930   7.300   2.370   5.913  0.3350 -0.4163  0.2520
23830SOL    HW172931   7.294   2.461   5.883  0.0423 -0.0693  1.2951
23830SOL    HW272932   7.367   2.330   5.858  0.6188  0.4936 -0.0759
23831SOL     OW72933   0.660   2.223   5.276  0.0683  0.8166 -0.2617
23831SOL    HW172934   0.624   2.178   5.354 -1.0747  0.4901 -0.9495
23831SOL    HW272935   0.712   2.156   5.232 -1.2269  0.2553 -1.0179
23832SOL     OW72936   0.125   0.716   5.657  0.7595 -0.3565 -0.2787
23832SOL    HW172937   0.061   0.704   5.727  0.3075  3.1854  0.0991
23832SOL    HW272938   0.193   0.651   5.676 -1.3059 -2.3133  0.9502
23833SOL     OW72939   0.281   0.781   4.661  0.2007  0.0307 -0.0634
23833SOL    HW172940   0.346   0.802   4.727 -0.8242  0.5823  0.8043
23833SOL    HW272941   0.329   0.781   4.578  1.0352  1.7558  0.3854
23834SOL     OW72942   7.013   2.381   4.547  0.1825 -0.2216  0.0428
23834SOL    HW172943   7.011   2.437   4.470  0.4748 -0.5754 -0.2249
23834SOL    HW272944   7.105   2.377   4.572  0.0886 -0.1025  0.4154
23835SOL     OW72945   0.887   0.441   3.025  0.2820  0.1952  0.3665
23835SOL    HW172946   0.948   0.373   2.996 -0.9846 -0.6993 -0.2899
23835SOL    HW272947   0.888   0.506   2.955 -1.2131 -0.9550 -0.7923
23836SOL     OW72948   7.237   2.692   3.798  0.3472 -0.2732  0.7039
23836SOL    HW172949   7.189   2.723   3.875  0.0542  2.5842 -0.5097
23836SOL    HW272950   7.319   2.658   3.833  1.3537  3.3304  2.2167
23837SOL     OW72951   6.398   1.934   4.233 -0.1096 -0.4332  0.0141
23837SOL    HW172952   6.408   1.897   4.145 -1.1404  0.0284 -0.3120
23837SOL    HW272953   6.307   1.965   4.236 -0.7264 -2.2314  1.9451
23838SOL     OW72954   1.696   2.940   4.855 -0.3389 -0.2140 -0.7720
23838SOL    HW172955   1.782   2.960   4.818  0.1951 -2.3579 -0.8170
23838SOL    HW272956   1.675   3.016   4.909  1.8568  0.1168 -0.2917
23839SOL     OW72957   6.962   1.794   2.801  0.3020  0.3148 -0.3834
23839SOL    HW172958   6.914   1.857   2.855  1.1013 -0.3818  1.2068
23839SOL    HW272959   6.898   1.725   2.782  0.5957 -0.5872  1.6819
23840SOL     OW72960   0.633   2.768   5.640  0.3836 -0.2232 -0.4603
23840SOL    HW172961   0.708   2.740   5.692  0.7499 -1.8111 -1.7490
23840SOL    HW272962   0.558   2.723   5.680  0.2809  0.4899  0.1581
23841SOL     OW72963   0.960   2.757   5.226  0.9041 -1.3072 -0.0014
23841SOL    HW172964   0.967   2.664   5.250 -1.0840 -0.9616  2.2648
23841SOL    HW272965   0.913   2.797   5.299 -1.5045  0.7910 -2.4699
23842SOL     OW72966   6.050   1.850   4.058  0.5317 -0.5326 -0.0787
23842SOL    HW172967   6.033   1.794   4.133 -0.9466  0.7053  0.5746
23842SOL    HW272968   6.039   1.939   4.092  0.9263  0.0946 -1.5091
23843SOL     OW72969   4.801   1.047   3.357  0.4603  0.0282 -0.4572
23843SOL    HW172970   4.881   1.087   3.322 -0.1331  2.4800  0.7168
23843SOL    HW272971   4.826   1.018   3.445  0.4398 -0.6414 -0.6675
23844SOL     OW72972   0.331   0.528   3.794 -0.0082 -0.6401  0.2484
23844SOL    HW172973   0.366   0.558   3.711  0.1878 -0.0668  0.5339
23844SOL    HW272974   0.395   0.556   3.859 -0.0572 -1.2590  0.5786
23845SOL     OW72975   1.048   6.126   4.319  0.4126 -0.4524 -0.0748
23845SOL    HW172976   1.139   6.096   4.324  0.7856  0.7779  1.9778
23845SOL    HW272977   1.022   6.136   4.411 -1.4944  0.1530 -0.6407
23846SOL     OW72978   6.209   3.667   5.478  0.4239  0.3110 -0.0738
23846SOL    HW172979   6.154   3.741   5.454 -0.2786  0.3073  1.4224
23846SOL    HW272980   6.296   3.705   5.492  0.7018  0.4117 -1.8446
23847SOL     OW72981   7.096   2.270   5.715 -0.5109  0.2999  0.0236
23847SOL    HW172982   7.055   2.356   5.719 -0.6547  0.2693 -0.6637
23847SOL    HW272983   7.161   2.270   5.785 -0.3070  1.0702 -0.1655
23848SOL     OW72984   7.998   2.830   2.984  0.3858 -0.3568 -0.4265
23848SOL    HW172985   8.013   2.866   3.072  0.6375 -0.0951 -0.5766
23848SOL    HW272986   7.911   2.790   2.990 -1.8390  3.7803 -1.3302
23849SOL     OW72987   7.420   2.231   5.462 -0.1314  0.3733 -0.0504
23849SOL    HW172988   7.477   2.219   5.386 -2.0611  0.8999 -1.6652
23849SOL    HW272989   7.372   2.311   5.443 -1.4819 -0.1050  1.1899
23850SOL     OW72990   7.505   1.424   5.602  0.4812 -0.4233  0.0990
23850SOL    HW172991   7.557   1.344   5.602 -1.1163 -1.5166  0.6712
23850SOL    HW272992   7.415   1.394   5.618 -0.5848  1.2107 -2.2317
23851SOL     OW72993   5.937   1.282   2.825 -0.3474 -1.0297 -0.4952
23851SOL    HW172994   5.959   1.194   2.858  1.9266 -0.6387 -0.8176
23851SOL    HW272995   5.959   1.340   2.898 -4.2506 -0.7722  0.7303
23852SOL     OW72996   0.591   1.072   5.835  0.7775  0.7588  0.1563
23852SOL    HW172997   0.670   1.126   5.832  0.1234  2.0920  3.4136
23852SOL    HW272998   0.590   1.035   5.923 -2.1475  0.6905  0.1962
23853SOL     OW72999   6.421   7.608   6.745  0.0213 -0.1271 -0.4558
23853SOL    HW173000   6.384   7.529   6.705 -0.6510  0.5916 -1.2828
23853SOL    HW273001   6.510   7.582   6.771 -0.1588 -1.1284 -0.7959
23854SOL     OW73002   0.220   6.968   7.135 -0.3786 -0.0792 -0.1504
23854SOL    HW173003   0.249   7.031   7.202 -0.0217 -1.0143  0.5928
23854SOL    HW273004   0.297   6.956   7.078 -0.2296 -0.3526  0.1066
23855SOL     OW73005   7.340   2.698   6.526 -0.3551 -0.0478  0.4048
23855SOL    HW173006   7.390   2.647   6.590 -1.3874 -0.7304  0.7024
23855SOL    HW273007   7.292   2.631   6.476  0.0790  0.5046 -0.7799
23856SOL     OW73008   1.025   1.204   6.347  0.5137  0.1853  0.1642
23856SOL    HW173009   1.042   1.216   6.441  1.7533 -0.0326 -0.0138
23856SOL    HW273010   1.093   1.143   6.318  0.1353  0.2412 -0.8798
23857SOL     OW73011   0.388   3.098   4.101  0.2807 -0.1557 -0.2356
23857SOL    HW173012   0.441   3.031   4.057  0.1416 -0.1622 -0.3918
23857SOL    HW273013   0.383   3.170   4.039  0.8052  0.1867  0.1045
23858SOL     OW73014   0.926   2.878   6.953 -0.0198 -0.1815  0.2407
23858SOL    HW173015   0.834   2.891   6.930  0.1270  0.2171 -0.1464
23858SOL    HW273016   0.955   2.964   6.984  1.1688  0.7591 -3.0589
23859SOL     OW73017   6.823   2.683   7.389 -0.3216 -0.3675 -0.5560
23859SOL    HW173018   6.912   2.648   7.381 -0.8777 -2.0281  0.1046
23859SOL    HW273019   6.835   2.775   7.413  1.2123 -0.5450 -0.5749
23860SOL     OW73020   7.826   1.741   8.167  0.3505 -0.4742  0.0891
23860SOL    HW173021   7.850   1.808   8.103 -0.9323 -0.2147 -0.1548
23860SOL    HW273022   7.884   1.757   8.242 -0.5304  1.5335  0.4139
23861SOL     OW73023   1.620   1.992   5.635  0.2458  0.0523  0.2984
23861SOL    HW173024   1.644   1.997   5.543 -0.0850  0.2234  0.2210
23861SOL    HW273025   1.659   1.910   5.666  2.0334  0.9406  0.4990
23862SOL     OW73026   6.978   0.895   8.481 -0.1717 -0.8379 -0.1274
23862SOL    HW173027   7.009   0.812   8.517  2.0747 -0.1937 -0.4177
23862SOL    HW273028   7.024   0.903   8.397 -0.8564  0.4148 -0.4082
23863SOL     OW73029   0.218   7.380   5.162 -0.1920  0.1749  0.9394
23863SOL    HW173030   0.202   7.291   5.194  0.0625 -0.2883 -0.1826
23863SOL    HW273031   0.266   7.423   5.233 -0.1134 -0.6559  1.3990
23864SOL     OW73032   0.374   7.413   6.775 -0.1936 -0.5543 -0.0303
23864SOL    HW173033   0.463   7.414   6.812  0.1472  1.0918 -0.8202
23864SOL    HW273034   0.341   7.325   6.796  2.2724 -1.8891 -1.2454
23865SOL     OW73035   1.848   3.060   7.055 -0.0202  0.2640 -0.1665
23865SOL    HW173036   1.903   3.136   7.075  1.5139 -0.7745 -0.2376
23865SOL    HW273037   1.909   2.996   7.018 -0.5704 -2.2481  2.8855
23866SOL     OW73038   0.132   0.876   5.970 -0.0147  0.2481 -0.1920
23866SOL    HW173039   0.191   0.902   5.900  3.2241 -0.5316  2.0057
23866SOL    HW273040   0.104   0.958   6.011 -1.3601  0.6669 -1.8546
23867SOL     OW73041   0.289   1.882   8.155  0.0136 -0.1747 -0.1866
23867SOL    HW173042   0.245   1.870   8.070 -1.3411 -2.6316  0.7666
23867SOL    HW273043   0.343   1.804   8.166  1.5456  0.9267  0.4926
23868SOL     OW73044   1.492   7.681   5.944  0.4742 -0.1162  0.3099
23868SOL    HW173045   1.417   7.712   5.893  0.3013 -0.4301  0.3641
23868SOL    HW273046   1.542   7.759   5.965  1.0616 -0.0655 -1.1561
23869SOL     OW73047   0.248   2.460   5.810  0.4455  0.2876  0.5489
23869SOL    HW173048   0.240   2.533   5.871 -0.0966  1.0586 -0.4299
23869SOL    HW273049   0.158   2.440   5.784  0.5504 -0.9394  1.0226
23870SOL     OW73050   7.523   0.227   5.396 -0.7063 -0.3288 -0.0049
23870SOL    HW173051   7.523   0.302   5.335  0.8110 -0.3128 -0.0231
23870SOL    HW273052   7.430   0.208   5.410 -1.1421  1.7081  0.1790
23871SOL     OW73053   0.155   7.894   7.444 -0.3960  0.4140  0.5575
23871SOL    HW173054   0.235   7.878   7.494 -1.1696  1.8433  2.3632
23871SOL    HW273055   0.161   7.985   7.415  0.1581 -0.4265 -2.3498
23872SOL     OW73056   7.906   0.813   6.665  0.2920 -0.0850  0.0570
23872SOL    HW173057   7.883   0.872   6.593 -0.3324 -1.5713 -0.9864
23872SOL    HW273058   7.856   0.734   6.650  0.3607 -0.5602  1.9913
23873SOL     OW73059   7.987   2.620   6.554  0.8754  0.8873 -0.0101
23873SOL    HW173060   8.046   2.591   6.623 -1.3456  0.9812  2.0720
23873SOL    HW273061   7.924   2.548   6.545  0.1425  1.5963 -0.7160
23874SOL     OW73062   1.393   1.389   8.070 -0.1441  0.5936  0.1722
23874SOL    HW173063   1.346   1.466   8.037 -1.5637  0.0145  0.7975
23874SOL    HW273064   1.431   1.349   7.992  0.4670  1.8011 -0.1885
23875SOL     OW73065   1.108   0.101   7.169 -0.2113  0.1751  0.8431
23875SOL    HW173066   1.145   0.187   7.151  2.6747 -1.4051 -1.8409
23875SOL    HW273067   1.109   0.094   7.265 -0.0990  2.8813  1.1040
23876SOL     OW73068   0.843   1.340   6.641  0.1795  0.3725 -0.1340
23876SOL    HW173069   0.852   1.375   6.729 -1.7880 -0.6866  0.5324
23876SOL    HW273070   0.801   1.409   6.591 -0.1006  0.4043  0.1484
23877SOL     OW73071   7.606   0.705   5.286 -0.1701 -0.0896 -0.2225
23877SOL    HW173072   7.528   0.759   5.273 -0.7950 -0.8695  0.1806
23877SOL    HW273073   7.653   0.748   5.358  0.7128  1.3843 -1.6183
23878SOL     OW73074   1.084   1.884   6.250 -0.8169 -0.2649  0.0878
23878SOL    HW173075   1.049   1.914   6.334 -0.5301  1.3337 -0.3361
23878SOL    HW273076   1.138   1.808   6.273  1.2284  1.5440  1.7491
23879SOL     OW73077   6.820   1.781   7.026 -0.6625  0.0801 -0.0090
23879SOL    HW173078   6.791   1.692   7.047 -0.3957  0.4429  2.0948
23879SOL    HW273079   6.890   1.798   7.088 -0.9605  1.9066 -0.1291
23880SOL     OW73080   6.732   0.650   8.006 -0.4349  0.1706 -0.5602
23880SOL    HW173081   6.770   0.595   7.937  0.3886 -0.9231  0.7078
23880SOL    HW273082   6.693   0.724   7.959 -0.3147 -0.7677 -2.2211
23881SOL     OW73083   3.243   1.381   5.354  0.1683 -0.4294 -0.3594
23881SOL    HW173084   3.192   1.392   5.274 -1.3158  2.2442  0.8103
23881SOL    HW273085   3.332   1.406   5.331 -0.0593 -0.5210 -1.3526
23882SOL     OW73086   1.562   3.299   4.042  0.1925  0.3353  0.0436
23882SOL    HW173087   1.470   3.299   4.018 -0.5848  1.1075  2.6717
23882SOL    HW273088   1.574   3.381   4.091  1.8824 -0.4739  1.0904
23883SOL     OW73089   7.252   1.551   7.555  0.2689  0.2006 -0.4349
23883SOL    HW173090   7.271   1.550   7.649 -1.9152  0.2976  0.0621
23883SOL    HW273091   7.200   1.630   7.542 -0.6679 -0.5696 -1.4607
23884SOL     OW73092   0.161   1.231   7.839 -0.0079  0.2513 -0.0254
23884SOL    HW173093   0.173   1.183   7.757  1.8773  0.8839 -0.1551
23884SOL    HW273094   0.066   1.240   7.847 -0.3748 -2.1642 -0.7474
23885SOL     OW73095   0.412   7.845   7.561  0.2315 -0.1323 -0.4448
23885SOL    HW173096   0.411   7.888   7.647  0.6752  1.2907 -1.1015
23885SOL    HW273097   0.505   7.829   7.544  0.1812 -0.0208 -0.8309
23886SOL     OW73098   1.038   2.113   8.590 -0.3011 -0.0128  0.2266
23886SOL    HW173099   0.963   2.150   8.637 -0.9329 -1.3723  0.3343
23886SOL    HW273100   1.003   2.085   8.506  0.9063  2.7971 -1.3651
23887SOL     OW73101   0.327   0.672   6.892  0.0338 -0.3362 -0.3916
23887SOL    HW173102   0.244   0.671   6.939 -1.2443  0.4044 -2.4870
23887SOL    HW273103   0.328   0.590   6.843 -0.1451  0.2563 -1.4229
23888SOL     OW73104   0.827   2.350   6.829  0.3425  0.1525 -0.2547
23888SOL    HW173105   0.769   2.321   6.899  0.6359 -2.7780 -1.1200
23888SOL    HW273106   0.889   2.409   6.873 -0.2627 -0.5764  1.6741
23889SOL     OW73107   0.702   7.268   6.304  0.1838  0.7623  0.1094
23889SOL    HW173108   0.753   7.192   6.331  0.3051  0.8291  0.0686
23889SOL    HW273109   0.665   7.302   6.385 -2.5012 -1.1907 -0.1652
23890SOL     OW73110   7.221   0.495   6.323  1.0881 -0.3191 -0.9900
23890SOL    HW173111   7.153   0.530   6.380  3.5065  0.7361  1.4605
23890SOL    HW273112   7.204   0.401   6.319  1.8324 -0.7781  3.1120
23891SOL     OW73113   1.210   2.078   5.588 -0.2785  0.3779  0.0524
23891SOL    HW173114   1.234   1.998   5.634 -0.5437  0.9647  1.2646
23891SOL    HW273115   1.169   2.048   5.507 -0.4414 -0.7140  0.5173
23892SOL     OW73116   2.587   1.239   6.434 -0.2556 -0.8218  0.0006
23892SOL    HW173117   2.677   1.208   6.425 -0.1412 -0.5707  0.2469
23892SOL    HW273118   2.594   1.316   6.491 -0.7548 -1.4650  0.9638
23893SOL     OW73119   7.730   3.765   6.244 -0.4162  0.1217  0.0783
23893SOL    HW173120   7.698   3.848   6.209 -1.1536 -0.6140 -1.0608
23893SOL    HW273121   7.684   3.755   6.327 -2.2482 -0.2955 -0.9271
23894SOL     OW73122   0.799   0.616   5.141  0.3508  0.2890 -0.5593
23894SOL    HW173123   0.793   0.684   5.208 -1.0315  1.0684 -1.4363
23894SOL    HW273124   0.820   0.664   5.061 -0.7971 -0.2953 -1.2185
23895SOL     OW73125   7.807   7.135   6.604 -0.2931 -0.0111 -0.1781
23895SOL    HW173126   7.781   7.052   6.646 -2.0060 -0.5461 -2.1307
23895SOL    HW273127   7.902   7.127   6.592 -0.4215 -1.7136 -0.3399
23896SOL     OW73128   7.205   2.382   8.035  0.6505 -0.0620 -0.4763
23896SOL    HW173129   7.241   2.425   8.112  0.9852  1.1749 -1.2858
23896SOL    HW273130   7.111   2.373   8.054  0.4037  1.8422 -0.6009
23897SOL     OW73131   6.940   0.107   4.749 -0.6508  0.1285  0.3887
23897SOL    HW173132   6.900   0.194   4.754 -2.8966 -0.7042 -1.1415
23897SOL    HW273133   6.874   0.048   4.785  0.5946 -1.0258  0.8852
23898SOL     OW73134   0.412   1.365   7.547  0.0867 -0.9009  0.3483
23898SOL    HW173135   0.327   1.347   7.506 -0.4029 -0.9273  1.3357
23898SOL    HW273136   0.412   1.312   7.626  1.5951 -1.9313 -0.2941
23899SOL     OW73137   1.352   1.115   5.978  0.5699  0.1973  0.2765
23899SOL    HW173138   1.391   1.177   6.040  2.0262  0.7933 -1.1575
23899SOL    HW273139   1.400   1.034   5.994 -0.1787 -0.1145  1.0079
23900SOL     OW73140   0.469   1.206   6.910  0.9654 -0.2983  0.4916
23900SOL    HW173141   0.410   1.162   6.849  0.4568 -0.5606  1.1625
23900SOL    HW273142   0.500   1.283   6.862  0.7653 -0.6283 -0.1802
23901SOL     OW73143   6.504   3.102   6.993 -0.5644  0.1542  0.2609
23901SOL    HW173144   6.571   3.078   7.057 -1.9884 -1.1981  1.3316
23901SOL    HW273145   6.454   3.022   6.979  0.1295  0.1976 -3.1989
23902SOL     OW73146   7.601   0.652   7.287 -0.5898  0.1656 -0.3261
23902SOL    HW173147   7.511   0.662   7.257 -0.5917  1.8928  0.1165
23902SOL    HW273148   7.638   0.740   7.280  0.5713 -0.1821  1.0341
23903SOL     OW73149   7.301   7.819   7.684 -0.3575 -0.7671 -0.1276
23903SOL    HW173150   7.335   7.736   7.652 -1.3458 -1.4293  0.4725
23903SOL    HW273151   7.307   7.812   7.780  1.1130  0.5479 -0.0753
23904SOL     OW73152   7.173   7.491   7.390  0.2650 -0.2521 -1.0434
23904SOL    HW173153   7.184   7.559   7.324 -0.1391  0.8459 -0.0189
23904SOL    HW273154   7.078   7.484   7.401  0.3260  1.2482  1.0294
23905SOL     OW73155   1.472   1.059   7.268 -0.2421 -0.1358 -0.2767
23905SOL    HW173156   1.477   1.052   7.173 -2.4638 -0.4594 -0.4126
23905SOL    HW273157   1.517   1.141   7.289  1.5428 -0.7609 -1.4168
23906SOL     OW73158   6.467   3.019   5.876  0.1696  0.5619 -0.2131
23906SOL    HW173159   6.514   2.982   5.802  2.3357  2.1403  0.2877
23906SOL    HW273160   6.493   2.965   5.951  0.0803  0.6038 -0.1510
23907SOL     OW73161   6.604   1.386   7.113 -0.1891  0.6959  0.0214
23907SOL    HW173162   6.586   1.375   7.207 -1.4204  1.0767 -0.1494
23907SOL    HW273163   6.543   1.454   7.085 -0.1608  0.2577 -1.1573
23908SOL     OW73164   1.206   1.651   6.357  0.0801  0.5738 -0.2049
23908SOL    HW173165   1.142   1.589   6.324 -1.4468  2.4082 -0.9214
23908SOL    HW273166   1.201   1.642   6.453  2.0821 -2.3962 -0.2521
23909SOL     OW73167   7.126   2.216   6.522  0.0416  0.1809  0.2484
23909SOL    HW173168   7.212   2.203   6.483 -0.6731  1.2777 -1.8293
23909SOL    HW273169   7.078   2.136   6.502  0.2414 -0.0066  0.5075
23910SOL     OW73170   6.102   3.984   7.392 -0.6274 -0.3711  0.3582
23910SOL    HW173171   6.156   3.976   7.471  1.6976  2.5715 -0.7378
23910SOL    HW273172   6.065   4.072   7.397 -1.5935 -0.6550 -1.1805
23911SOL     OW73173   7.193   2.720   5.327  0.3775  0.3472 -0.9093
23911SOL    HW173174   7.113   2.745   5.373  1.4967  0.2854  1.2032
23911SOL    HW273175   7.176   2.631   5.296 -0.1257  0.0590  0.1470
23912SOL     OW73176   0.361   1.694   6.846  0.2705 -0.4760  0.1105
23912SOL    HW173177   0.421   1.621   6.830  0.9279 -0.4022  1.9704
23912SOL    HW273178   0.391   1.763   6.788  2.4237 -0.2390  1.4036
23913SOL     OW73179   7.729   0.602   5.698 -0.5326  0.1153  0.3731
23913SOL    HW173180   7.804   0.602   5.758 -1.8367 -1.0198  2.0719
23913SOL    HW273181   7.759   0.655   5.624  2.9178 -2.4051 -0.2983
23914SOL     OW73182   7.897   2.287   6.057 -0.0824  0.0985  0.3966
23914SOL    HW173183   7.928   2.374   6.082  2.2565 -0.7567  0.7322
23914SOL    HW273184   7.810   2.280   6.096  0.4237  1.6094  1.8835
23915SOL     OW73185   6.752   6.596   6.408  0.1994  0.4897  0.0220
23915SOL    HW173186   6.806   6.624   6.334 -0.0985  1.0650  0.0100
23915SOL    HW273187   6.746   6.501   6.399  0.9749  0.4519 -0.1292
23916SOL     OW73188   6.867   0.977   8.017 -1.1731  0.1515 -0.5096
23916SOL    HW173189   6.916   1.056   8.041 -0.1051 -0.3414 -1.0037
23916SOL    HW273190   6.784   0.986   8.063  0.4160 -0.3598  2.8472
23917SOL     OW73191   0.057   1.739   8.657  0.2070  0.0860 -0.3446
23917SOL    HW173192   0.089   1.803   8.721 -0.8174 -0.5753  0.8805
23917SOL    HW273193   0.134   1.716   8.606  0.9316  1.0924  0.2569
23918SOL     OW73194   7.183   0.440  10.361 -0.2629  0.2956 -0.3137
23918SOL    HW173195   7.151   0.485  10.282  0.2563  0.2859 -0.5286
23918SOL    HW273196   7.135   0.482  10.433 -0.5118  0.5146 -0.6034
23919SOL     OW73197   7.230   1.230   8.872 -0.0696 -0.1273 -0.2311
23919SOL    HW173198   7.242   1.209   8.779  0.5267  1.8005 -0.6315
23919SOL    HW273199   7.170   1.305   8.872 -0.3820 -0.3584  0.9797
23920SOL     OW73200   0.133   0.727   7.042  0.6578 -0.3604  0.8322
23920SOL    HW173201   0.091   0.737   7.127  2.4672 -0.0010  1.7475
23920SOL    HW273202   0.079   0.663   6.995 -0.1330 -0.9128  2.4236
23921SOL     OW73203   1.387   0.459   9.141  0.0526 -0.2157  0.2597
23921SOL    HW173204   1.377   0.433   9.232  1.1500 -1.3695  0.0772
23921SOL    HW273205   1.327   0.401   9.093  1.4933 -1.5631 -0.0033
23922SOL     OW73206   7.525   2.279   8.154 -0.1206 -0.0764 -0.5506
23922SOL    HW173207   7.574   2.302   8.076 -0.3736  2.2637 -0.0939
23922SOL    HW273208   7.481   2.360   8.180 -3.3391 -1.7364 -0.2764
23923SOL     OW73209   0.085   2.654   9.422 -0.4556  0.5335  0.3059
23923SOL    HW173210   0.059   2.564   9.438  1.9578 -0.4713 -0.9860
23923SOL    HW273211   0.081   2.664   9.327 -1.3716  2.0451  0.4707
23924SOL     OW73212   0.538   0.101   9.611 -0.0075 -0.3332 -0.1684
23924SOL    HW173213   0.526   0.119   9.518  0.7800 -0.4923 -0.3033
23924SOL    HW273214   0.470   0.153   9.654 -2.0371 -2.1327 -0.9682
23925SOL     OW73215   1.493   0.691   9.060 -0.7232  0.2360 -0.3645
23925SOL    HW173216   1.460   0.625   9.122  1.3697 -0.1169  0.4525
23925SOL    HW273217   1.566   0.732   9.105 -0.3663  1.3395 -1.8740
23926SOL     OW73218   6.778   2.152   7.419  0.1654 -0.2607 -0.4108
23926SOL    HW173219   6.753   2.243   7.432  1.7216  0.0414  0.7953
23926SOL    HW273220   6.725   2.103   7.483 -1.8951 -0.4626 -2.1867
23927SOL     OW73221   2.095   1.293   5.928 -0.2813  0.3524 -0.1025
23927SOL    HW173222   2.004   1.308   5.952 -0.3572 -0.9060  0.4866
23927SOL    HW273223   2.091   1.231   5.855  0.1129  0.0448  0.1351
23928SOL     OW73224   1.513   0.897   8.538  0.0851 -0.1233 -0.2269
23928SOL    HW173225   1.515   0.887   8.633 -2.0117 -0.4173 -0.1550
23928SOL    HW273226   1.500   0.991   8.525  0.0802 -0.1219 -0.2128
23929SOL     OW73227   0.981   1.872   7.666 -0.0104  0.0174  0.2046
23929SOL    HW173228   0.970   1.884   7.760 -1.2456  2.2501 -0.1389
23929SOL    HW273229   0.924   1.798   7.644  1.0302 -1.1515  1.3004
23930SOL     OW73230   1.528   1.766   9.195  0.4963 -0.2323 -0.2834
23930SOL    HW173231   1.455   1.779   9.135  0.5653 -1.5384 -0.6662
23930SOL    HW273232   1.600   1.736   9.139  0.5643 -1.4477  0.4235
23931SOL     OW73233   7.837   1.027   8.957 -0.2369  0.5989 -0.2034
23931SOL    HW173234   7.807   1.035   8.866 -1.7254  0.7273  0.2723
23931SOL    HW273235   7.910   0.965   8.953 -1.3731 -0.7466 -1.2676
23932SOL     OW73236   5.827   1.100   7.927 -0.2901  0.1568  0.1241
23932SOL    HW173237   5.819   1.040   7.853 -1.4575  1.2115 -0.6348
23932SOL    HW273238   5.743   1.093   7.973  1.2373 -2.4076  2.9643
23933SOL     OW73239   1.754   0.788  10.216  0.5284 -0.2837  0.3885
23933SOL    HW173240   1.806   0.796  10.136  0.4961 -1.7117  0.1892
23933SOL    HW273241   1.711   0.873  10.226  0.0893 -0.2512 -1.4192
23934SOL     OW73242   7.849   5.728   5.937  0.2420  0.0795  0.3146
23934SOL    HW173243   7.784   5.797   5.951  0.5827  0.2374  1.1682
23934SOL    HW273244   7.863   5.690   6.023 -0.4930 -1.5862 -0.2596
23935SOL     OW73245   7.825   3.360   9.111 -0.2328  0.3227 -0.0979
23935SOL    HW173246   7.795   3.447   9.135 -0.9348 -0.2752  1.2618
23935SOL    HW273247   7.896   3.340   9.173 -0.8946 -0.5449  0.4050
23936SOL     OW73248   7.443   0.303   8.667 -0.2872 -0.3959  0.3677
23936SOL    HW173249   7.401   0.325   8.583  0.7950  0.6708  0.0867
23936SOL    HW273250   7.535   0.290   8.645  0.4541  2.0810  1.7117
23937SOL     OW73251   0.154   6.334   6.884  0.0982 -0.0840  0.5336
23937SOL    HW173252   0.183   6.422   6.909  0.2647 -0.1025  0.4040
23937SOL    HW273253   0.087   6.349   6.817  0.8667 -0.0811 -0.2551
23938SOL     OW73254   6.891   1.218   8.787 -0.4586 -0.2333  0.0628
23938SOL    HW173255   6.953   1.146   8.795  0.2072  0.3621  0.3147
23938SOL    HW273256   6.832   1.206   8.861  0.3692  0.1581  0.8025
23939SOL     OW73257   0.207   2.302   7.133 -0.0364  0.0157 -0.5305
23939SOL    HW173258   0.275   2.309   7.066 -0.8038  0.8592 -1.2371
23939SOL    HW273259   0.127   2.282   7.084 -0.1791 -1.7969  0.3528
23940SOL     OW73260   6.705   0.900   8.435 -0.3011 -0.3901  0.1678
23940SOL    HW173261   6.795   0.893   8.468 -0.3772  0.7381  0.6401
23940SOL    HW273262   6.715   0.941   8.349 -0.4241  0.7530  0.6775
23941SOL     OW73263   0.950   7.829   8.755 -0.7275  0.0109  0.1738
23941SOL    HW173264   0.993   7.813   8.671  3.5386  0.7460  1.9202
23941SOL    HW273265   0.920   7.743   8.784  2.0135 -1.1667 -0.1629
23942SOL     OW73266   0.151   1.322   7.472 -0.0779  0.2431 -0.4324
23942SOL    HW173267   0.107   1.241   7.498 -1.9451  0.3035 -2.9796
23942SOL    HW273268   0.088   1.391   7.492  0.2691  0.7253 -0.9749
23943SOL     OW73269   2.376   0.006   9.443  0.2657 -0.0478 -0.1645
23943SOL    HW173270   2.380   0.082   9.501  0.4476  0.2994 -0.6347
23943SOL    HW273271   2.358  -0.068   9.503  0.8925  0.2407  0.3958
23944SOL     OW73272   0.218   1.511   8.890  0.3666  0.0665  0.1252
23944SOL    HW173273   0.250   1.504   8.800  0.0544 -0.6707  0.0673
23944SOL    HW273274   0.125   1.491   8.885  0.6308 -1.5028  0.8105
23945SOL     OW73275   0.212   1.004  11.178  0.2769  0.3753 -0.1830
23945SOL    HW173276   0.141   0.962  11.128  2.4316  0.1817 -3.3504
23945SOL    HW273277   0.291   0.961  11.147  2.1189  3.0187  0.5685
23946SOL     OW73278   7.063   0.941   7.742  0.7496  0.0237 -0.9230
23946SOL    HW173279   6.989   0.952   7.801  0.4286  0.1562 -1.3443
23946SOL    HW273280   7.058   0.850   7.712  1.3885 -0.2928 -0.1250
23947SOL     OW73281   0.195   0.186   8.526 -0.2045  0.5943 -0.4563
23947SOL    HW173282   0.181   0.184   8.432  1.2210 -2.1942 -0.7075
23947SOL    HW273283   0.261   0.254   8.539 -0.2014  0.8042 -1.5115
23948SOL     OW73284   7.296   7.262   7.435  0.1188  0.1121  0.2775
23948SOL    HW173285   7.378   7.283   7.392 -0.7498 -0.6295 -1.8666
23948SOL    HW273286   7.249   7.346   7.440  0.1793  0.1908 -0.3747
23949SOL     OW73287   6.024   3.247   9.914  0.3719 -0.2105 -0.4818
23949SOL    HW173288   5.972   3.239   9.834  0.7884  0.0099 -0.7787
23949SOL    HW273289   6.023   3.341   9.934  2.4115  0.1399 -1.7003
23950SOL     OW73290   7.114   0.902   7.441  0.1501  0.2776  0.8003
23950SOL    HW173291   7.131   0.984   7.487  2.2574  0.5270 -0.2992
23950SOL    HW273292   7.180   0.899   7.372 -1.1283 -1.4164 -0.4386
23951SOL     OW73293   7.626   7.522  10.551 -0.4958 -0.2421  0.2720
23951SOL    HW173294   7.536   7.553  10.535 -0.2552  0.6519  0.5865
23951SOL    HW273295   7.615   7.439  10.597 -1.1671  0.0293  0.6196
23952SOL     OW73296   1.316   7.280   9.197 -0.3113  0.7446  0.4696
23952SOL    HW173297   1.265   7.360   9.183 -1.7128 -0.2770 -0.6239
23952SOL    HW273298   1.250   7.211   9.206  0.8710 -0.4965 -0.0015
23953SOL     OW73299   0.832   7.160   7.388 -0.5935  0.3657  1.0064
23953SOL    HW173300   0.775   7.131   7.317 -1.6776  2.3167  0.9999
23953SOL    HW273301   0.918   7.125   7.367 -1.2236 -0.3506 -0.4620
23954SOL     OW73302   7.624   1.068   8.680  0.5095 -0.0692  0.1315
23954SOL    HW173303   7.577   1.125   8.619  0.5407 -0.3982 -0.2068
23954SOL    HW273304   7.554   1.017   8.723  0.5633 -0.8060 -0.6234
23955SOL     OW73305   6.845   3.130   8.508  0.0743 -0.0259 -0.0051
23955SOL    HW173306   6.872   3.040   8.492 -1.5716 -0.0990 -3.0444
23955SOL    HW273307   6.926   3.181   8.503  1.2554 -1.3362  3.1343
23956SOL     OW73308   6.075   1.085   8.079  0.4998  0.5957  0.0935
23956SOL    HW173309   6.117   1.169   8.095 -0.7153  1.0449  1.1467
23956SOL    HW273310   5.994   1.107   8.033  0.3687 -0.0356  0.0041
23957SOL     OW73311   7.361   6.976   7.453  0.5252  0.2261  0.0439
23957SOL    HW173312   7.318   7.060   7.438 -0.6771 -0.5357 -1.0067
23957SOL    HW273313   7.421   6.966   7.380  2.1240  1.0124  1.1935
23958SOL     OW73314   7.276   6.757   7.605  0.0978 -0.2515 -0.2295
23958SOL    HW173315   7.186   6.775   7.630  0.2330 -0.4364  0.4232
23958SOL    HW273316   7.304   6.835   7.557 -1.2926 -1.3488 -3.0093
23959SOL     OW73317   6.425   7.889  10.266  0.1140 -0.4111  0.1730
23959SOL    HW173318   6.443   7.850  10.351  1.2586 -0.4292 -0.0584
23959SOL    HW273319   6.482   7.966  10.262 -0.6438  0.1407 -0.1855
23960SOL     OW73320   0.714   7.561   8.152  0.5470  0.0558 -0.3255
23960SOL    HW173321   0.760   7.512   8.084  2.4506 -0.2201  1.1081
23960SOL    HW273322   0.641   7.603   8.105  1.9686  0.1528 -2.5950
23961SOL     OW73323   7.868   0.699   9.125  0.4380  0.2005  0.3694
23961SOL    HW173324   7.916   0.672   9.203 -0.2492  0.3472  0.8498
23961SOL    HW273325   7.780   0.718   9.156  0.3699  1.0381 -0.3074
23962SOL     OW73326   6.406   2.728   9.053  0.0901 -0.2361 -0.0322
23962SOL    HW173327   6.414   2.681   8.970 -1.3772  0.1950 -0.4320
23962SOL    HW273328   6.338   2.681   9.101  0.5400 -0.1495  0.7033
23963SOL     OW73329   0.692   2.987  11.320  0.4443  0.4464  0.0445
23963SOL    HW173330   0.611   3.017  11.278  0.1369  0.8948  0.9468
23963SOL    HW273331   0.712   3.054  11.385  2.0861  0.8512 -0.8210
23964SOL     OW73332   7.714   0.161   8.297 -0.0360  0.1374 -0.0680
23964SOL    HW173333   7.775   0.216   8.247 -0.7770  0.9977 -0.0719
23964SOL    HW273334   7.718   0.076   8.254  0.2593  0.5184 -0.8271
23965SOL     OW73335   0.861   0.952   6.792  0.2556  0.0072  0.2042
23965SOL    HW173336   0.927   0.911   6.736  1.8239  0.5456  1.5677
23965SOL    HW273337   0.911   1.014   6.846 -1.4087  0.5914  1.1405
23966SOL     OW73338   2.233   1.236   9.061  0.1972 -0.0855  0.5926
23966SOL    HW173339   2.186   1.315   9.086 -1.0661 -0.1889 -1.2300
23966SOL    HW273340   2.275   1.259   8.978  0.5498 -1.0649  0.4847
23967SOL     OW73341   1.782   0.466   7.468  0.1901  0.8379  0.0524
23967SOL    HW173342   1.871   0.469   7.502  0.6410 -1.9095 -0.6502
23967SOL    HW273343   1.786   0.515   7.385  0.7099  1.7287  0.5820
23968SOL     OW73344   0.202   0.408  11.563  0.1983  0.4029  0.0010
23968SOL    HW173345   0.215   0.316  11.540  0.2270  0.5648 -0.6758
23968SOL    HW273346   0.181   0.450  11.479  2.1889  1.3909 -0.0522
23969SOL     OW73347   0.287   1.456   7.111  0.4809 -0.2522  0.1667
23969SOL    HW173348   0.250   1.438   7.025  0.7036  2.2787 -0.5594
23969SOL    HW273349   0.363   1.512   7.093  0.2463  0.7517  1.9921
23970SOL     OW73350   0.359   7.543   7.683 -0.6823 -0.1256  0.4477
23970SOL    HW173351   0.364   7.637   7.668 -1.6606 -0.4666 -2.8371
23970SOL    HW273352   0.378   7.532   7.776  1.8529  3.0489  0.4566
23971SOL     OW73353   1.755   1.015   9.861  0.0850  0.1388 -0.0499
23971SOL    HW173354   1.684   1.037   9.922 -0.9213 -1.6187 -0.5279
23971SOL    HW273355   1.711   0.991   9.780  1.2048 -1.2006 -0.2999
23972SOL     OW73356   0.019   1.996  10.690 -0.1908 -0.2450 -0.1265
23972SOL    HW173357   0.036   1.953  10.606 -1.2126  0.1592 -0.5455
23972SOL    HW273358   0.079   2.071  10.691 -1.3510  0.7472 -1.2764
23973SOL     OW73359   7.900   1.194   8.211 -0.3817  0.5500  0.0607
23973SOL    HW173360   7.830   1.214   8.150 -1.3556 -1.7883  0.2990
23973SOL    HW273361   7.866   1.122   8.265  1.9728 -0.3023  0.5681
23974SOL     OW73362   7.904   2.680  10.630 -0.0388 -0.4676 -0.4512
23974SOL    HW173363   7.825   2.711  10.584 -0.3334 -1.2370 -0.4816
23974SOL    HW273364   7.919   2.745  10.698 -0.0046  0.3228 -1.1916
23975SOL     OW73365   0.398   1.251   9.827 -0.1807 -0.3743 -0.1643
23975SOL    HW173366   0.330   1.260   9.894 -0.5291  1.8837 -0.7289
23975SOL    HW273367   0.478   1.283   9.868 -0.2882  0.5366 -0.6376
23976SOL     OW73368   7.649   3.090   6.928 -0.6480 -0.6785  0.1147
23976SOL    HW173369   7.702   3.163   6.959 -0.8164  0.1062 -1.3300
23976SOL    HW273370   7.565   3.100   6.973 -0.6861  0.0690 -0.0987
23977SOL     OW73371   0.059   0.801  10.006 -0.6717  0.1533 -0.0965
23977SOL    HW173372  -0.035   0.799  10.021 -0.5152 -1.2019  1.0357
23977SOL    HW273373   0.070   0.824   9.914 -2.1394 -0.4641 -0.4418
23978SOL     OW73374   0.118   7.615  11.379  0.0063 -0.1044 -0.6363
23978SOL    HW173375   0.079   7.702  11.387  0.4657  0.0072  0.7760
23978SOL    HW273376   0.209   7.631  11.355  0.5204 -0.0609  1.1460
23979SOL     OW73377   6.117   1.662  10.764  0.3437  0.2128  0.4640
23979SOL    HW173378   6.207   1.657  10.732  0.3216  0.1176  0.4152
23979SOL    HW273379   6.126   1.686  10.856  0.3550  2.0921  0.0204
23980SOL     OW73380   0.597   3.228   9.987 -0.1840  0.4214 -0.0196
23980SOL    HW173381   0.582   3.320   9.966  1.0655  0.6953  0.2201
23980SOL    HW273382   0.692   3.217   9.983 -0.3528 -1.0085 -0.6356
23981SOL     OW73383   0.250   0.506   9.328 -0.3224 -0.2596  0.1522
23981SOL    HW173384   0.279   0.485   9.239  0.5721  1.8423 -0.1040
23981SOL    HW273385   0.329   0.531   9.374 -1.1126  1.2371  0.7621
23982SOL     OW73386   7.115   0.942  11.439 -0.1946  0.2674  0.3002
23982SOL    HW173387   7.151   1.009  11.380  1.1534 -1.9347 -1.5340
23982SOL    HW273388   7.078   0.876  11.381  0.2540 -1.5205  1.9616
23983SOL     OW73389   0.404   2.502  10.978  0.0275  0.0764  0.0028
23983SOL    HW173390   0.390   2.596  10.991 -0.7250 -0.0744  0.3660
23983SOL    HW273391   0.315   2.465  10.977  0.3437 -0.7411  0.7601
23984SOL     OW73392   0.255   0.219  10.080 -0.3651  0.2348  0.6052
23984SOL    HW173393   0.206   0.279  10.024 -0.8184 -0.6826  0.0041
23984SOL    HW273394   0.277   0.145  10.024  2.2843  0.8621  0.6687
23985SOL     OW73395   7.524   1.715   9.181  0.0837  0.4573  0.2981
23985SOL    HW173396   7.580   1.725   9.104 -0.4980  0.7677 -0.0983
23985SOL    HW273397   7.445   1.764   9.158 -1.0604 -1.4098  0.1453
23986SOL     OW73398   7.727   0.901   9.530 -0.2064  0.1638 -0.5169
23986SOL    HW173399   7.697   0.811   9.518  0.6707 -0.6670  2.5944
23986SOL    HW273400   7.647   0.953   9.537 -0.7183 -0.2524 -2.6724
23987SOL     OW73401   7.442   0.023  11.420 -0.6724 -0.3013  0.4330
23987SOL    HW173402   7.418  -0.002  11.331  0.1246 -0.6994  0.3258
23987SOL    HW273403   7.369   0.078  11.450 -1.8914 -1.7457  0.2382
23988SOL     OW73404   7.853   1.494   9.094  1.0698  0.7932  0.5889
23988SOL    HW173405   7.874   1.500   9.001  0.0020  0.4611  0.3102
23988SOL    HW273406   7.872   1.403   9.117  0.9538  0.7697  0.5934
23989SOL     OW73407   0.635   7.510  11.523  0.7860 -0.0881 -0.2207
23989SOL    HW173408   0.694   7.532  11.452 -0.0970 -0.5658 -1.1181
23989SOL    HW273409   0.691   7.505  11.601  1.7259  0.5938 -0.8471
23990SOL     OW73410   6.692   0.625   0.057  0.5357 -0.2068  0.2423
23990SOL    HW173411   6.694   0.577  -0.025 -0.0234  1.4571 -0.7993
23990SOL    HW273412   6.651   0.709   0.035  0.4518  0.3227  2.2008
23991SOL     OW73413   7.308   0.710   9.543 -0.6878  0.0737  0.0329
23991SOL    HW173414   7.274   0.780   9.488 -0.7843 -0.1525 -0.1996
23991SOL    HW273415   7.401   0.704   9.520 -1.2187 -1.7221 -2.0207
23992SOL     OW73416   4.967   1.553  11.440  0.5158 -0.1439  1.7400
23992SOL    HW173417   5.016   1.636  11.435  0.1821 -0.0114 -0.0066
23992SOL    HW273418   4.979   1.513  11.354 -3.5403  0.5644  0.6393
23993SOL     OW73419   6.891   7.692  10.468  0.3107 -0.6014  0.5043
23993SOL    HW173420   6.942   7.620  10.505 -1.1161 -1.9719 -0.1181
23993SOL    HW273421   6.843   7.653  10.395  0.2604  1.2187 -0.4880
23994SOL     OW73422   1.345   2.978   9.397 -0.6533 -0.0666  0.1029
23994SOL    HW173423   1.437   2.998   9.418 -0.3491 -0.9273 -0.3204
23994SOL    HW273424   1.344   2.972   9.302 -1.3915  0.9835  0.0393
23995SOL     OW73425   0.344   2.068  10.520 -0.3012 -0.1048 -0.0983
23995SOL    HW173426   0.296   2.105  10.446 -1.3368 -0.9760  0.1213
23995SOL    HW273427   0.307   2.110  10.597 -0.6720 -0.7278  0.0683
23996SOL     OW73428   0.481   0.143  11.263 -0.0147 -0.3819  0.4085
23996SOL    HW173429   0.561   0.105  11.228 -0.6993 -1.3352 -0.1686
23996SOL    HW273430   0.417   0.136  11.192 -0.6812  0.1286  0.9379
23997SOL     OW73431   7.393   6.520   0.145 -0.3491 -0.2169 -0.4515
23997SOL    HW173432   7.361   6.443   0.193 -0.8512  0.0174 -0.4089
23997SOL    HW273433   7.487   6.523   0.166 -0.2928 -0.8922 -0.5595
23998SOL     OW73434   1.688   1.201  12.025 -0.2372  0.4318 -0.2813
23998SOL    HW173435   1.717   1.292  12.037  0.0365  0.1146  1.7392
23998SOL    HW273436   1.623   1.187  12.093 -0.1074 -0.9632 -0.4131
23999SOL     OW73437   7.000   0.119  10.773 -0.2671  0.3624 -0.5325
23999SOL    HW173438   7.053   0.040  10.778 -1.5452 -0.5491 -0.9352
23999SOL    HW273439   7.061   0.190  10.793  0.5425 -0.8398  1.5122
24000SOL     OW73440   0.390   0.640   9.857  0.3473 -0.0965  0.5218
24000SOL    HW173441   0.318   0.661   9.797  1.2009  1.0256 -0.1483
24000SOL    HW273442   0.360   0.671   9.942 -0.1298 -0.0138  0.3275
24001SOL     OW73443   7.193   0.795   8.688  0.1916  0.0312  0.2010
24001SOL    HW173444   7.191   0.748   8.605  0.9398 -0.5446  0.4953
24001SOL    HW273445   7.279   0.837   8.689  0.1066  0.1959  0.5900
24002SOL     OW73446   7.733   1.247  12.281 -0.1931 -0.0935  0.0372
24002SOL    HW173447   7.763   1.250  12.190 -0.8387  1.0241 -0.1557
24002SOL    HW273448   7.646   1.207  12.276 -0.7349  1.0564  0.0019
24003SOL     OW73449   6.891   0.409  10.176 -0.2531  0.2538 -0.2324
24003SOL    HW173450   6.912   0.348  10.246 -0.3939  0.8931  0.3694
24003SOL    HW273451   6.940   0.488  10.197  0.0195  0.3211 -1.0706
24004SOL     OW73452   6.372   0.739  11.007 -0.0668 -0.2778  0.1094
24004SOL    HW173453   6.391   0.659  11.057  1.3482 -0.0780 -0.0827
24004SOL    HW273454   6.418   0.727  10.924  1.9602  1.5829  0.8557
24005SOL     OW73455   6.268   1.927  10.621  0.1898 -0.0914 -0.0331
24005SOL    HW173456   6.291   1.835  10.610  0.1564  0.1774 -3.5462
24005SOL    HW273457   6.173   1.929  10.618  0.0569 -0.0577  2.2837
24006SOL     OW73458   7.723   1.345   9.612 -0.0759  0.8985 -0.7674
24006SOL    HW173459   7.655   1.406   9.584 -1.4068 -0.9056 -1.7883
24006SOL    HW273460   7.676   1.262   9.624  1.4854  0.2455  1.4036
24007SOL     OW73461   7.021   0.629   9.726 -0.4360 -0.4076  0.0679
24007SOL    HW173462   7.026   0.676   9.810 -1.7463  0.8415 -0.5104
24007SOL    HW273463   6.953   0.563   9.741 -0.3604 -0.4724  0.1259
24008SOL     OW73464   7.362   3.524  12.305 -0.6559 -0.0738  0.3644
24008SOL    HW173465   7.398   3.609  12.282 -0.9625  0.3620  1.4302
24008SOL    HW273466   7.371   3.471  12.226 -0.6917  1.0188 -0.3795
24009SOL     OW73467   0.569   1.416   9.022  0.3157  0.2783 -0.4202
24009SOL    HW173468   0.483   1.450   9.048  1.3951  1.4363  1.8800
24009SOL    HW273469   0.601   1.370   9.099  3.1549  2.7835  0.0722
24010SOL     OW73470   7.503   7.543  12.102 -0.2231 -0.8635 -0.6126
24010SOL    HW173471   7.422   7.545  12.152  0.8872  1.7624  1.2861
24010SOL    HW273472   7.572   7.547  12.169  1.3704  0.9237 -2.2667
24011SOL     OW73473   7.857   7.943  11.158  0.1064 -0.1866 -0.0578
24011SOL    HW173474   7.826   8.005  11.223  1.6817  1.3788 -0.7296
24011SOL    HW273475   7.940   7.911  11.193  0.5404  0.0086 -0.8693
24012SOL     OW73476   0.378   6.461  10.836 -0.2027  0.1446 -0.1338
24012SOL    HW173477   0.370   6.541  10.785 -2.2454 -1.0201 -1.8295
24012SOL    HW273478   0.316   6.400  10.796 -0.0497 -1.7292  2.1899
24013SOL     OW73479   0.091   1.801   9.812  0.2532  0.3325  0.1636
24013SOL    HW173480   0.057   1.769   9.728  2.0636 -0.7623 -0.2170
24013SOL    HW273481   0.035   1.875   9.834 -0.8064  0.1133 -1.5839
24014SOL     OW73482   7.540   0.457   8.022  0.0377  0.5455  0.0311
24014SOL    HW173483   7.619   0.405   8.007  0.2745  0.5625  1.1266
24014SOL    HW273484   7.571   0.538   8.063 -0.6806 -0.4708  2.8306
24015SOL     OW73485   7.857   0.801  11.418  0.1299 -0.2933 -0.6902
24015SOL    HW173486   7.915   0.827  11.346 -0.1164 -1.0701 -1.1882
24015SOL    HW273487   7.838   0.882  11.464  0.3042  0.2225 -1.5029
24016SOL     OW73488   0.040   0.571  10.321  0.0741  0.4278 -0.6502
24016SOL    HW173489   0.008   0.532  10.240  0.1163  1.1284 -1.0104
24016SOL    HW273490  -0.030   0.631  10.348 -1.6085 -2.3527  1.7557
24017SOL     OW73491   0.671   1.879   9.558  0.6814  0.2199  0.3400
24017SOL    HW173492   0.742   1.841   9.611  1.2596  0.3994 -0.2977
24017SOL    HW273493   0.606   1.908   9.623  2.6727  3.2031  1.2322
24018SOL     OW73494   0.050   2.172   8.807 -0.1813  0.3409  0.2063
24018SOL    HW173495   0.031   2.247   8.863 -0.3873  0.9510 -0.6488
24018SOL    HW273496   0.086   2.211   8.727  0.9876 -0.5611  0.2699
24019SOL     OW73497   0.019   6.994  10.813 -0.5000 -0.4828  0.3064
24019SOL    HW173498  -0.064   7.010  10.859 -0.5525 -1.2301  0.4965
24019SOL    HW273499  -0.006   6.980  10.722 -0.5742 -0.5545  0.3370
24020SOL     OW73500   6.297   0.492   9.199  0.9767 -0.2091  0.1042
24020SOL    HW173501   6.382   0.477   9.240  1.4433  1.2693 -0.2690
24020SOL    HW273502   6.315   0.493   9.105  1.3725  3.9094  0.0177
24021SOL     OW73503   6.163   0.396  11.954  0.0870 -0.6570  0.2802
24021SOL    HW173504   6.256   0.418  11.962  0.6795 -3.1938  1.3247
24021SOL    HW273505   6.163   0.308  11.916 -1.9826  0.0079 -1.4147
24022SOL     OW73506   7.251   0.521   8.973 -0.0551  0.0497 -0.9497
24022SOL    HW173507   7.233   0.545   9.064 -2.2206 -1.4076 -0.9203
24022SOL    HW273508   7.339   0.482   8.975  0.3582  0.9928  0.2917
24023SOL     OW73509   0.207   1.876  11.971 -0.7024 -0.6704 -0.1520
24023SOL    HW173510   0.219   1.956  12.021 -2.0845 -0.0844 -0.6955
24023SOL    HW273511   0.257   1.889  11.891  1.2264 -1.4671  0.8589
24024SOL     OW73512   1.319   0.602   7.812  0.1837  0.6998  0.3497
24024SOL    HW173513   1.353   0.661   7.745 -1.1074  0.9389 -0.1188
24024SOL    HW273514   1.229   0.631   7.826 -0.4709 -1.1051  0.1712
24025SOL     OW73515   7.044   1.706  11.904  0.0889 -0.4837 -0.3202
24025SOL    HW173516   7.056   1.617  11.871  0.3727 -0.6587  0.2305
24025SOL    HW273517   7.028   1.759  11.827 -0.1290 -1.0245 -0.6484
24026SOL     OW73518   7.128   1.471   9.690  0.1152 -0.2958 -0.2252
24026SOL    HW173519   7.216   1.446   9.715  0.6469 -0.5859 -2.1759
24026SOL    HW273520   7.096   1.397   9.638  0.1409  1.2690 -2.6197
24027SOL     OW73521   6.732   1.660  11.804  0.0673 -0.1220 -0.0121
24027SOL    HW173522   6.805   1.695  11.855  0.2210 -0.3440 -0.0792
24027SOL    HW273523   6.720   1.723  11.733 -2.1896  1.9188  2.0074
24028SOL     OW73524   0.199   2.237  11.629  0.2277 -0.6164 -0.1125
24028SOL    HW173525   0.167   2.206  11.714  2.6180  2.4702  2.1697
24028SOL    HW273526   0.130   2.295  11.597 -0.8936 -2.1584 -0.6223
24029SOL     OW73527   0.456   2.696   9.951  0.5650  0.2284 -0.0980
24029SOL    HW173528   0.485   2.787   9.954 -1.0260  0.7923 -0.7060
24029SOL    HW273529   0.516   2.654   9.889  0.8219  1.0621 -0.4317
24030SOL     OW73530   1.323   0.690   9.577 -0.6212 -0.2492 -0.0272
24030SOL    HW173531   1.229   0.680   9.594 -1.0373  1.8452 -0.8008
24030SOL    HW273532   1.328   0.737   9.494  1.0475  1.5003  0.9771
24031SOL     OW73533   0.266   0.290  12.012 -0.4939 -0.0437 -0.3635
24031SOL    HW173534   0.341   0.328  11.966 -1.0015  1.4926 -0.0146
24031SOL    HW273535   0.302   0.261  12.096  0.0177 -0.8704 -0.8614
24032SOL     OW73536   7.427   0.537   9.791 -0.3221  0.0504  0.1787
24032SOL    HW173537   7.452   0.488   9.869 -1.3341  0.9934  1.1247
24032SOL    HW273538   7.491   0.608   9.786  0.8042 -0.9976 -0.8739
24033SOL     OW73539   7.944   1.855  11.647 -0.5458  0.5394  0.1777
24033SOL    HW173540   7.917   1.936  11.603  0.4753  0.6140 -0.3609
24033SOL    HW273541   8.038   1.868  11.664 -0.3679 -0.5207  0.0942
24034SOL     OW73542   6.779   2.727   9.738  0.1443  0.3610 -0.2269
24034SOL    HW173543   6.819   2.813   9.721  0.0933  0.5875  0.7620
24034SOL    HW273544   6.708   2.721   9.674 -1.2235  1.9923  1.0309
24035SOL     OW73545   6.686   0.335  12.083  0.5520  0.5820 -0.2960
24035SOL    HW173546   6.699   0.333  12.178 -0.4321 -1.7588 -0.1643
24035SOL    HW273547   6.753   0.276  12.048 -0.0449  0.2553 -0.9128
24036SOL     OW73548   6.016   7.499  11.157 -0.3107 -0.2059  0.4144
24036SOL    HW173549   6.001   7.528  11.067  0.4813  0.9017  0.6194
24036SOL    HW273550   5.991   7.407  11.157  0.0039 -0.3110 -1.0240
24037SOL     OW73551   6.835   1.601   9.395 -0.8667  0.3837 -1.2232
24037SOL    HW173552   6.743   1.608   9.419 -0.6893 -0.9563  0.0737
24037SOL    HW273553   6.863   1.517   9.432  1.3174  1.5421  0.0160
24038SOL     OW73554   7.810   7.706  10.822 -0.3959 -0.4449 -0.5986
24038SOL    HW173555   7.785   7.614  10.824 -0.4668 -0.4300 -0.8063
24038SOL    HW273556   7.783   7.737  10.736 -2.8412  0.4564  0.3946
24039SOL     OW73557   7.641   1.547  11.535  0.2480 -0.5476 -0.3186
24039SOL    HW173558   7.676   1.550  11.624 -1.6264  2.7855  0.5007
24039SOL    HW273559   7.691   1.614  11.488 -1.5382  0.7617 -0.4803
24040SOL     OW73560   7.698   0.910  11.966  0.3610 -0.3551 -0.1209
24040SOL    HW173561   7.742   0.965  12.031  0.9800  1.0470 -1.6306
24040SOL    HW273562   7.769   0.881  11.907 -0.5076  1.0689 -1.9808
24041SOL     OW73563   7.452   1.069   1.098 -0.2459 -0.1339 -0.5447
24041SOL    HW173564   7.501   1.096   1.175  1.2810 -1.6647 -0.9319
24041SOL    HW273565   7.363   1.053   1.130  0.0616  0.4530  0.6367
24042SOL     OW73566   7.814   0.213   0.650  0.2767  0.2404 -0.5903
24042SOL    HW173567   7.738   0.158   0.666 -0.0979  0.5383 -1.2788
24042SOL    HW273568   7.842   0.190   0.562  0.6788  0.4944 -0.5315
24043SOL     OW73569   7.666   0.774   0.013  0.2154 -0.0585 -0.5441
24043SOL    HW173570   7.720   0.697  -0.003  0.2727 -0.0682 -0.3142
24043SOL    HW273571   7.600   0.773  -0.057  0.1763 -0.3508 -0.5055
24044SOL     OW73572   7.417   3.021  10.459  0.2992 -0.0116  0.3577
24044SOL    HW173573   7.357   3.027  10.533  0.5975 -0.0074  0.6015
24044SOL    HW273574   7.495   3.067  10.488  0.3012  0.2664 -0.0787
24045SOL     OW73575   6.691   7.707  10.699 -0.1290  0.6248 -0.1001
24045SOL    HW173576   6.775   7.736  10.663  1.5517 -1.2401  2.0089
24045SOL    HW273577   6.670   7.628  10.649  1.9738 -1.7042  2.4197
24046SOL     OW73578   0.472   1.177  11.964 -0.4890 -0.4014  0.3867
24046SOL    HW173579   0.391   1.227  11.975 -1.1800 -1.5682  0.6869
24046SOL    HW273580   0.533   1.216  12.026 -0.9336  0.2349  0.4300
24047SOL     OW73581   6.716   0.793  11.541  0.0543 -0.0779  0.1923
24047SOL    HW173582   6.723   0.798  11.637  0.5897 -1.2188  0.2261
24047SOL    HW273583   6.744   0.880  11.511 -1.3706  0.7476  1.1114
24048SOL     OW73584   0.622   2.680  10.778  0.4311 -0.4844  0.5428
24048SOL    HW173585   0.650   2.727  10.856 -0.8753  2.0538 -0.3948
24048SOL    HW273586   0.565   2.611  10.811  1.5908 -0.8176  1.9362
24049SOL     OW73587   0.318   0.579   1.313  0.2519  0.4388 -0.4637
24049SOL    HW173588   0.303   0.661   1.361  0.4874  0.3001 -0.1514
24049SOL    HW273589   0.246   0.522   1.338  1.2021 -0.1903  0.9551
24050SOL     OW73590   0.115   2.347   0.761 -0.0974  0.7150  0.4386
24050SOL    HW173591   0.153   2.320   0.844 -0.0684  0.1739  0.2505
24050SOL    HW273592   0.055   2.418   0.784 -0.2028  0.4675  0.9339
24051SOL     OW73593   7.243   7.520  10.325  0.5670 -0.4486  0.3392
24051SOL    HW173594   7.171   7.540  10.265  0.2603  1.8572  1.3868
24051SOL    HW273595   7.316   7.574  10.293  1.3223 -1.4709  0.3001
24052SOL     OW73596   7.297   0.731  12.185  0.4618  0.1094  0.4101
24052SOL    HW173597   7.258   0.687  12.110  0.5926  1.7243 -0.6357
24052SOL    HW273598   7.223   0.758  12.239  0.2884  0.3106  0.0723
24053SOL     OW73599   7.865   1.513   1.501  0.1492  0.1601 -0.2281
24053SOL    HW173600   7.936   1.515   1.436  0.1105  0.9284 -0.2486
24053SOL    HW273601   7.869   1.598   1.544 -1.4612  0.6702 -1.0027
24054SOL     OW73602   7.573   0.732   0.532 -0.1201  0.2203 -0.2123
24054SOL    HW173603   7.573   0.637   0.520  0.6017  0.2110 -0.1823
24054SOL    HW273604   7.523   0.766   0.457 -0.8819 -0.2133  0.0950
24055SOL     OW73605   7.569   1.317  11.952 -0.1141 -0.1301 -0.4789
24055SOL    HW173606   7.487   1.286  11.990 -0.5099 -0.0824 -1.2708
24055SOL    HW273607   7.554   1.410  11.936 -0.0462 -0.2069 -0.9935
24056SOL     OW73608   0.205   1.656   0.381  0.5439 -0.3805 -0.0870
24056SOL    HW173609   0.173   1.568   0.361 -1.3953 -0.0203  1.1848
24056SOL    HW273610   0.295   1.642   0.409  1.6044 -1.4804 -3.5219
24057SOL     OW73611   0.423   0.019  11.702 -0.5255 -0.0582 -0.4113
24057SOL    HW173612   0.328   0.007  11.702 -0.5815  0.1017  1.2443
24057SOL    HW273613   0.459  -0.070  11.700 -0.7460 -0.1654  0.1835
24058SOL     OW73614   0.440   0.381  10.865  0.1955 -0.2879  0.0141
24058SOL    HW173615   0.422   0.472  10.840  1.1756 -0.4076 -1.3137
24058SOL    HW273616   0.533   0.382  10.890 -0.5596 -0.3461  3.1234
24059SOL     OW73617   6.894   0.165  11.534 -0.2243  0.0509  0.6668
24059SOL    HW173618   6.809   0.200  11.508  0.7819  1.1156 -1.4360
24059SOL    HW273619   6.882   0.070  11.533 -1.4202  0.1794  0.6062
24060SOL     OW73620   1.421   1.427  12.056  0.2135 -0.9519  0.3969
24060SOL    HW173621   1.466   1.484  12.118 -0.0798  0.7290 -0.8478
24060SOL    HW273622   1.473   1.435  11.975 -0.5940 -1.3923 -0.1774
24061SOL     OW73623   6.258   0.557  11.373 -0.3530 -0.2310 -0.6254
24061SOL    HW173624   6.301   0.593  11.451 -2.3307 -0.6040  0.7115
24061SOL    HW273625   6.324   0.500  11.334  0.5987 -0.2993  0.9596
24062SOL     OW73626   7.939   0.254   0.071 -0.0923  0.2193 -0.2215
24062SOL    HW173627   7.865   0.287   0.122  0.8904 -0.2099  1.5425
24062SOL    HW273628   8.002   0.223   0.136  2.4196  2.1442 -1.5452
24063SOL     OW73629   7.673   0.960  12.312 -0.4724 -0.1089  0.0720
24063SOL    HW173630   7.696   0.932  12.401 -0.9844  0.8508  0.5177
24063SOL    HW273631   7.616   0.891  12.279 -0.7925 -0.1680  0.7315
24064SOL     OW73632   0.203   1.123  11.428 -0.1004  0.8036 -0.0556
24064SOL    HW173633   0.210   1.072  11.347  2.3781  2.7155 -1.1581
24064SOL    HW273634   0.117   1.165  11.422 -0.3045  0.2725 -1.2550
24065SOL     OW73635   7.773   0.456   9.851 -0.4496  0.4671  0.4854
24065SOL    HW173636   7.807   0.445   9.939 -1.5604 -1.4368  0.7233
24065SOL    HW273637   7.793   0.373   9.807 -0.1839  1.2709 -0.9700
24066SOL     OW73638   7.399   6.810  11.694  0.2554 -0.6965  0.2729
24066SOL    HW173639   7.442   6.729  11.722  0.5654 -0.2574  1.1156
24066SOL    HW273640   7.394   6.863  11.774 -0.8461 -0.2818 -0.0487
24067SOL     OW73641   0.847   7.761  12.458  0.4442 -0.3085 -0.0391
24067SOL    HW173642   0.817   7.750  12.368  0.9206  0.8290 -0.3531
24067SOL    HW273643   0.779   7.719  12.511 -0.8564  0.7104 -0.8210
24068SOL     OW73644   7.720   1.942   2.570 -0.2290 -0.6064  0.0406
24068SOL    HW173645   7.814   1.958   2.562 -0.4017  0.0555 -0.7730
24068SOL    HW273646   7.684   2.026   2.599 -0.5007 -1.0349  0.9873
24069SOL     OW73647   1.206   1.619  12.026  1.3065 -0.0274  0.0064
24069SOL    HW173648   1.245   1.538  11.994  1.4512  0.5609 -1.3957
24069SOL    HW273649   1.132   1.635  11.968  1.0660  0.6605  0.4866
24070SOL     OW73650   2.534   0.912  12.284  0.0605  0.1247 -0.5812
24070SOL    HW173651   2.463   0.935  12.225 -0.3068  0.2846 -0.0841
24070SOL    HW273652   2.545   0.818  12.273  0.0270  0.1649 -0.9443
24071SOL     OW73653   7.838   7.786  11.864  0.0986 -0.2199 -0.2139
24071SOL    HW173654   7.921   7.802  11.819  1.0128 -1.5616  0.9391
24071SOL    HW273655   7.773   7.829  11.808  1.6741  2.1083 -0.4403
24072SOL     OW73656   5.829   0.063  11.250 -0.3409  1.2745  0.4240
24072SOL    HW173657   5.773   0.044  11.325 -2.5299  0.4062 -1.3218
24072SOL    HW273658   5.907   0.009  11.264 -2.2093 -1.6178  0.4235
24073SOL     OW73659   5.787   0.671  11.816  0.4733  0.3879 -0.1745
24073SOL    HW173660   5.816   0.622  11.739  0.2787  2.6877 -1.8219
24073SOL    HW273661   5.798   0.610  11.889  0.1564 -2.0905 -2.0659
24074SOL     OW73662   6.141   0.745  11.857 -0.0390 -0.2657 -0.3973
24074SOL    HW173663   6.127   0.673  11.918 -0.7421  1.0397  1.0346
24074SOL    HW273664   6.093   0.719  11.778 -0.5001 -1.2351  0.1830
24075SOL     OW73665   0.408   6.086   0.060 -0.0382 -0.3727 -0.3792
24075SOL    HW173666   0.397   6.066  -0.033 -1.6735  0.8536 -0.4885
24075SOL    HW273667   0.357   6.166   0.074  0.8324 -0.0875  1.4096
24076SOL     OW73668   7.397   0.094  10.975 -0.1177 -0.1146  0.1233
24076SOL    HW173669   7.472   0.098  10.916  0.2980 -2.2981  0.3977
24076SOL    HW273670   7.377   0.185  10.995  2.8288  0.5677  0.4818
24077SOL     OW73671   3.402   1.310   0.806  0.3226 -0.5254  0.1036
24077SOL    HW173672   3.402   1.315   0.902  1.6338 -1.5002  0.1813
24077SOL    HW273673   3.309   1.301   0.783 -0.1783  1.5611  1.1323
24078SOL     OW73674   7.100   7.999   3.310 -0.3925  0.8458 -0.1793
24078SOL    HW173675   7.072   8.037   3.227  2.6289 -0.6747 -2.0518
24078SOL    HW273676   7.193   8.018   3.316  0.0564 -1.3711  1.5406
24079SOL     OW73677   0.638   2.035  11.520  0.0944 -0.6173 -0.2116
24079SOL    HW173678   0.672   2.125  11.518  0.2023 -0.6514  0.1459
24079SOL    HW273679   0.554   2.041  11.474 -0.0850 -0.2573  0.1596
24080SOL     OW73680   7.121   0.948  11.923 -0.3397 -0.1611 -0.2164
24080SOL    HW173681   7.074   0.907  11.995 -0.6479 -1.2279 -1.0088
24080SOL    HW273682   7.061   1.015  11.890 -0.9290 -0.8661 -0.6063
24081SOL     OW73683   7.575   7.322  12.393 -0.2835  0.5332 -0.1365
24081SOL    HW173684   7.635   7.392  12.421  0.4939  0.3294 -1.2128
24081SOL    HW273685   7.629   7.266  12.336 -1.3665  0.0520 -0.7163
24082SOL     OW73686   6.726   0.577  11.359  0.4412  0.1206  0.8864
24082SOL    HW173687   6.746   0.630  11.436 -0.6660  1.2262  0.4430
24082SOL    HW273688   6.650   0.620  11.320 -0.1011 -1.4526  0.1584
24083SOL     OW73689   7.447   1.346   0.088 -0.2485 -0.3341 -0.4886
24083SOL    HW173690   7.441   1.372  -0.004  0.3754  0.1305 -0.4010
24083SOL    HW273691   7.504   1.411   0.128 -2.1068  0.6752  0.6811
24084SOL     OW73692   6.692   1.059  10.635 -0.2574 -0.0670 -0.9217
24084SOL    HW173693   6.776   1.078  10.592 -0.3112  0.0868 -0.9594
24084SOL    HW273694   6.643   1.007  10.571  0.5591 -1.8307 -0.1685
24085SOL     OW73695   0.921   7.754  11.426  0.6149 -0.3362  0.2854
24085SOL    HW173696   0.884   7.673  11.389 -1.8301  0.7837  0.0903
24085SOL    HW273697   0.925   7.737  11.520 -0.2461 -0.5830  0.2901
24086SOL     OW73698   0.876   0.676  11.222  0.4858 -0.3459 -0.1289
24086SOL    HW173699   0.804   0.732  11.194  2.1959  2.7290  1.1857
24086SOL    HW273700   0.837   0.617  11.287 -0.8822  1.1845  0.4832
24087SOL     OW73701   7.513   1.151   2.282 -0.0659  0.2639  0.6882
24087SOL    HW173702   7.530   1.224   2.222 -1.2998  0.5112  0.6158
24087SOL    HW273703   7.474   1.083   2.227  0.1636 -0.0755  0.9423
24088SOL     OW73704   0.212   3.282   1.344 -0.2074  0.1494  0.7291
24088SOL    HW173705   0.275   3.222   1.304  0.0635  0.7424  0.2582
24088SOL    HW273706   0.264   3.353   1.379 -0.6737  1.2829 -0.7671
24089SOL     OW73707   7.661   3.957   0.120  0.1828  0.6024  0.0330
24089SOL    HW173708   7.609   3.992   0.193  2.3031  1.7257  1.1070
24089SOL    HW273709   7.640   4.013   0.046 -1.2612  0.0617 -0.0000
24090SOL     OW73710   0.163   1.016   1.376  0.7803 -0.0817 -0.0162
24090SOL    HW173711   0.201   1.075   1.442 -0.5190 -0.9975  1.6162
24090SOL    HW273712   0.111   1.074   1.320  1.7654  0.6827 -0.1900
24091SOL     OW73713   7.587   4.114  12.389  0.0367 -0.1152  0.2785
24091SOL    HW173714   7.637   4.056  12.332 -2.4250 -0.8999 -1.2310
24091SOL    HW273715   7.602   4.201  12.353 -0.7720 -0.5093 -1.0930
24092SOL     OW73716   7.307   3.527   0.929 -0.0471  0.5651  0.1884
24092SOL    HW173717   7.288   3.503   1.020 -0.4318  2.6776  0.7217
24092SOL    HW273718   7.402   3.540   0.927  0.3003 -1.6151 -0.3212
24093SOL     OW73719   7.619   2.902   0.376 -0.4643 -0.1266  0.0796
24093SOL    HW173720   7.624   2.979   0.320 -0.8948 -0.1023  0.0683
24093SOL    HW273721   7.599   2.937   0.463 -0.7328 -0.2273  0.0602
24094SOL     OW73722   6.005   2.934   3.207  0.0390 -0.0506 -0.1001
24094SOL    HW173723   6.028   3.009   3.152  0.7066 -0.2436 -0.0978
24094SOL    HW273724   6.035   2.858   3.157 -0.4109 -0.3001  0.0085
24095SOL     OW73725   6.685   5.744   1.094  0.6630 -0.3545 -0.2335
24095SOL    HW173726   6.681   5.651   1.116 -2.5448 -0.2008  0.3215
24095SOL    HW273727   6.646   5.749   1.007  2.5546  0.3321 -1.0907
24096SOL     OW73728   6.211   1.965   2.795  0.7987  0.0860 -0.1134
24096SOL    HW173729   6.121   1.950   2.824  0.6452  0.9899 -0.1001
24096SOL    HW273730   6.212   1.937   2.704 -0.1762  2.4101 -0.8993
24097SOL     OW73731   7.368   3.191   2.293  0.2504 -0.1293  0.3694
24097SOL    HW173732   7.288   3.169   2.340  0.3315  1.8874  1.5302
24097SOL    HW273733   7.412   3.255   2.348  0.7443  1.7730 -2.0653
24098SOL     OW73734   7.229   2.170   2.132 -0.4190  0.0127 -0.1570
24098SOL    HW173735   7.220   2.239   2.198  0.3982  0.6409 -0.6891
24098SOL    HW273736   7.294   2.203   2.071 -1.4580 -0.3648 -1.5296
24099SOL     OW73737   6.529   2.345   0.339 -0.1797  0.3381  0.5017
24099SOL    HW173738   6.493   2.386   0.417 -2.6011  0.1737 -0.4285
24099SOL    HW273739   6.454   2.303   0.297  0.9920  0.5496 -2.0016
24100SOL     OW73740   0.300   2.117  12.086  0.0799 -0.3853  0.1599
24100SOL    HW173741   0.276   2.210  12.088  0.4788 -0.2906  1.9570
24100SOL    HW273742   0.375   2.110  12.146 -0.0609 -1.8975  0.2034
24101SOL     OW73743   0.758   3.017   0.731  0.5947  0.1855 -0.1900
24101SOL    HW173744   0.782   3.104   0.699 -1.2776  0.7407 -0.1747
24101SOL    HW273745   0.792   2.957   0.664  2.4971  0.8320  0.1317
24102SOL     OW73746   7.744   5.148  11.084  0.2548  0.0051  0.8342
24102SOL    HW173747   7.777   5.059  11.092 -2.8311 -1.2628  1.0799
24102SOL    HW273748   7.803   5.201  11.138  1.8066 -1.9709  1.1790
24103SOL     OW73749   1.145   3.379  12.297  0.4035 -0.3795  0.7229
24103SOL    HW173750   1.068   3.350  12.248  0.6012  0.2513  0.0361
24103SOL    HW273751   1.114   3.454  12.348  0.7886  0.5102 -0.3147
24104SOL     OW73752   7.728   4.559   0.526 -0.2678  0.0069 -0.4146
24104SOL    HW173753   7.715   4.612   0.604 -0.5270 -0.1241 -0.3672
24104SOL    HW273754   7.698   4.614   0.454  1.7277  0.8656 -0.6480
24105SOL     OW73755   7.425   1.865   2.129 -0.2897 -0.2563  0.0688
24105SOL    HW173756   7.458   1.781   2.162 -1.7179 -1.0836 -0.5216
24105SOL    HW273757   7.442   1.861   2.035 -0.5787  0.0213  0.0055
24106SOL     OW73758   0.547   2.851   0.120 -0.0079  0.0605  0.2797
24106SOL    HW173759   0.586   2.900   0.193  1.2645  0.0730 -0.3913
24106SOL    HW273760   0.579   2.895   0.042 -2.0158  0.5479 -0.3215
24107SOL     OW73761   1.569   3.490   2.192 -0.5163 -0.0283 -0.7995
24107SOL    HW173762   1.601   3.575   2.161  0.6443  0.1854  0.8408
24107SOL    HW273763   1.530   3.450   2.115 -0.7640  1.8385 -1.7057
24108SOL     OW73764   0.189   7.305  11.931  0.7417 -0.6499 -0.0536
24108SOL    HW173765   0.270   7.268  11.895  0.1373 -1.6133 -0.4845
24108SOL    HW273766   0.125   7.234  11.923 -0.3474  0.3312 -0.4249
24109SOL     OW73767   1.317   2.939  10.719  0.0596  0.1391 -0.3969
24109SOL    HW173768   1.241   2.980  10.761  0.4129 -0.0040  0.4140
24109SOL    HW273769   1.386   3.005  10.726  0.7432 -0.6755  1.2601
24110SOL     OW73770   7.309   2.581   2.462 -0.0806 -0.6137  0.0223
24110SOL    HW173771   7.364   2.656   2.437 -0.5693 -0.3634 -0.3386
24110SOL    HW273772   7.286   2.598   2.553 -1.5782  0.5928 -0.5272
24111SOL     OW73773   7.037   3.620   2.315 -0.6314 -0.5267  0.1562
24111SOL    HW173774   7.115   3.565   2.321  0.3055  0.7555  0.0924
24111SOL    HW273775   7.012   3.636   2.406 -1.1937 -1.4242  0.1720
24112SOL     OW73776   0.133   2.295   2.947 -0.5704 -0.0890  0.5892
24112SOL    HW173777   0.221   2.257   2.942 -0.2554  0.5315  1.2689
24112SOL    HW273778   0.128   2.353   2.871 -1.3466 -2.0121 -0.9313
24113SOL     OW73779   0.940   3.591   2.844  0.3152 -0.1093 -0.3746
24113SOL    HW173780   1.012   3.620   2.788  0.7669 -0.5324 -0.0225
24113SOL    HW273781   0.887   3.535   2.788  2.1191 -2.6002  0.2238
24114SOL     OW73782   7.155   3.264  12.385  0.2055  0.3958  0.0753
24114SOL    HW173783   7.091   3.295  12.321  0.1424 -1.2021 -0.6690
24114SOL    HW273784   7.239   3.275  12.342  0.1952 -0.2912 -0.1272
24115SOL     OW73785   0.251   1.703   0.824  0.0505  0.1612  0.0934
24115SOL    HW173786   0.204   1.622   0.804  0.9465 -0.4872  0.5279
24115SOL    HW273787   0.343   1.677   0.830  0.3802  1.2459  0.0807
24116SOL     OW73788   0.378   1.792   1.292  0.5676 -0.7767 -0.0685
24116SOL    HW173789   0.290   1.798   1.331  0.9258 -1.2241  0.8290
24116SOL    HW273790   0.427   1.736   1.352  1.2013 -1.3263 -1.0733
24117SOL     OW73791   0.306   2.366   1.601 -1.1293  0.0268 -0.2130
24117SOL    HW173792   0.314   2.271   1.589 -0.3294  0.0760 -0.1434
24117SOL    HW273793   0.346   2.383   1.686 -2.6989  0.2466  0.5251
24118SOL     OW73794   0.297   2.437   0.568 -0.4454  0.7921 -0.3500
24118SOL    HW173795   0.243   2.399   0.637  0.6374 -0.6227 -0.2191
24118SOL    HW273796   0.303   2.530   0.590 -2.8277  1.0137 -0.4189
24119SOL     OW73797   7.863   2.703   0.573 -0.2955 -0.3238 -0.1539
24119SOL    HW173798   7.868   2.607   0.571 -0.0050 -0.3036 -0.3984
24119SOL    HW273799   7.791   2.721   0.634 -0.2273 -0.6934  0.0434
24120SOL     OW73800   0.432   2.136   0.104  0.2162  0.2028  0.2780
24120SOL    HW173801   0.391   2.117   0.019  0.6896 -0.7007  0.2276
24120SOL    HW273802   0.449   2.230   0.102  0.6023  0.1312 -0.8166
24121SOL     OW73803   7.300   2.181   1.392 -0.5768  0.5715 -0.1675
24121SOL    HW173804   7.360   2.211   1.460  0.0800 -0.6121 -0.1831
24121SOL    HW273805   7.298   2.251   1.328  1.4936  0.2949 -0.5883
24122SOL     OW73806   5.993   2.261   2.188  0.0516 -0.1754 -0.1464
24122SOL    HW173807   5.941   2.280   2.110  1.4401 -0.7106 -1.2693
24122SOL    HW273808   5.953   2.312   2.258 -2.3546 -1.0988 -0.7669
24123SOL     OW73809   7.050   2.293   0.034  0.3309  0.0576  0.7340
24123SOL    HW173810   7.019   2.202   0.029  1.8867 -0.4448 -0.8966
24123SOL    HW273811   6.970   2.345   0.028 -0.4589 -1.1978 -0.2262
24124SOL     OW73812   6.784   2.035   1.455  0.2493  0.3718  0.0523
24124SOL    HW173813   6.870   2.006   1.487 -1.1779 -2.6314  1.5846
24124SOL    HW273814   6.781   2.004   1.364 -0.0926 -1.8517  0.7656
24125SOL     OW73815   7.495   0.475   2.622 -0.3812 -0.7278  0.6914
24125SOL    HW173816   7.449   0.503   2.701  0.2721  0.8390  0.5639
24125SOL    HW273817   7.448   0.397   2.593 -1.8906 -0.1697  1.4975
24126SOL     OW73818   7.859   3.472   0.188 -0.1672 -0.1745  0.1273
24126SOL    HW173819   7.853   3.552   0.137  0.6231  0.6212  1.2278
24126SOL    HW273820   7.774   3.463   0.230 -0.5790 -0.4467 -0.7600
24127SOL     OW73821   7.899   2.817   1.394  0.6655  0.6278  0.0407
24127SOL    HW173822   7.863   2.795   1.308 -0.2374  2.9871 -0.2747
24127SOL    HW273823   7.836   2.782   1.456  1.8390 -2.0051 -0.1292
24128SOL     OW73824   0.120   2.837   1.094 -0.0171  0.1988 -0.5305
24128SOL    HW173825   0.151   2.747   1.084  0.6170  0.0117  2.2376
24128SOL    HW273826   0.029   2.835   1.065 -0.0290 -1.3774 -0.4473
24129SOL     OW73827   7.852   3.211   0.428  0.5017 -0.4268  0.0554
24129SOL    HW173828   7.762   3.221   0.458  0.3715 -0.9894 -0.1333
24129SOL    HW273829   7.882   3.130   0.469  1.0636 -0.0276  0.4487
24130SOL     OW73830   6.408   1.654  11.506 -0.1397 -0.6837  0.0167
24130SOL    HW173831   6.491   1.690  11.476 -1.5463  1.4976 -1.5241
24130SOL    HW273832   6.379   1.713  11.575 -1.3440 -0.2367 -0.8524
24131SOL     OW73833   0.190   3.364   1.983 -0.1856  0.1296  0.1629
24131SOL    HW173834   0.191   3.455   2.015 -1.3353 -0.2654  1.4642
24131SOL    HW273835   0.216   3.370   1.892 -0.1041  1.7620  0.2601
24132SOL     OW73836   7.973   2.316   0.020 -0.1330  0.2786  0.0359
24132SOL    HW173837   8.043   2.316   0.085  0.9259 -3.1949 -0.8843
24132SOL    HW273838   7.894   2.299   0.070  0.3619 -0.2276  0.6685
24133SOL     OW73839   6.778   2.860   0.479 -0.0548 -0.5772 -0.7383
24133SOL    HW173840   6.844   2.872   0.548 -2.7042 -2.4265  2.4013
24133SOL    HW273841   6.804   2.779   0.435  0.5384 -0.5386 -0.4727
24134SOL     OW73842   7.231   2.165   0.618  0.0109  0.6401 -0.2007
24134SOL    HW173843   7.156   2.124   0.574 -0.4783  2.1220 -0.8480
24134SOL    HW273844   7.259   2.234   0.557  0.3224  1.7207  1.1120
24135SOL     OW73845   0.635   1.876   1.611  0.0307 -0.6303 -0.0695
24135SOL    HW173846   0.661   1.801   1.664 -0.0352 -1.1117 -0.7068
24135SOL    HW273847   0.570   1.841   1.550  0.9193 -0.3503 -1.2129
24136SOL     OW73848   7.290   4.255  11.119  0.2390 -0.5770  0.1280
24136SOL    HW173849   7.308   4.198  11.045 -0.9942  0.0918 -0.7250
24136SOL    HW273850   7.308   4.343  11.086 -0.0812 -0.2957  0.6881
24137SOL     OW73851   7.746   3.503  11.903 -0.5636 -0.3896  0.0612
24137SOL    HW173852   7.763   3.597  11.908 -2.0155 -0.0708 -0.6065
24137SOL    HW273853   7.830   3.464  11.878 -0.4516  0.9558 -1.7908
24138SOL     OW73854   6.941   4.244   4.217 -0.4828 -0.3082  0.2423
24138SOL    HW173855   6.869   4.274   4.161  0.4252  1.6789  0.0353
24138SOL    HW273856   6.904   4.245   4.306 -2.0010 -3.7067 -0.2169
24139SOL     OW73857   3.780   3.087   0.684 -0.0040 -0.2821  0.0621
24139SOL    HW173858   3.765   3.143   0.760  1.4738  0.2467  0.0050
24139SOL    HW273859   3.855   3.033   0.708 -0.6042 -1.3308 -0.3792
24140SOL     OW73860   0.351   5.552   0.580  0.4761  0.3473 -0.0109
24140SOL    HW173861   0.421   5.486   0.574  0.9894  0.9419 -0.7713
24140SOL    HW273862   0.385   5.628   0.533 -0.7016  0.6361 -0.4382
24141SOL     OW73863   0.403   3.149   0.817 -0.8770 -0.1673 -0.1613
24141SOL    HW173864   0.419   3.243   0.831  0.3542 -0.2227 -1.1032
24141SOL    HW273865   0.379   3.116   0.904  0.6985  0.6296  0.6133
24142SOL     OW73866   5.844   3.418  12.290  0.1150  0.4525 -0.0989
24142SOL    HW173867   5.842   3.349  12.356 -1.8541 -0.7444 -1.2890
24142SOL    HW273868   5.804   3.493  12.333 -1.5735 -0.4475  0.0342
24143SOL     OW73869   0.723   1.825   2.996  0.2385  0.0463 -0.2345
24143SOL    HW173870   0.657   1.878   2.951  0.5501  0.5829 -0.0712
24143SOL    HW273871   0.730   1.864   3.083  1.4981  0.6414 -0.5796
24144SOL     OW73872   5.963   2.642   1.748  0.0890  0.8753 -0.2913
24144SOL    HW173873   5.898   2.614   1.812 -1.2720 -1.5291 -2.5344
24144SOL    HW273874   5.925   2.720   1.707 -1.4310 -0.3986 -1.4551
24145SOL     OW73875   7.655   3.151  10.541  0.3091 -0.1679  0.3794
24145SOL    HW173876   7.649   3.233  10.591  0.6263 -0.4662  0.9115
24145SOL    HW273877   7.743   3.151  10.504  0.6923 -0.7737  1.2711
24146SOL     OW73878   6.237   3.180   1.391 -0.4827 -0.3768  0.0333
24146SOL    HW173879   6.167   3.239   1.421  0.6410  0.0260  2.0049
24146SOL    HW273880   6.206   3.149   1.305 -2.1009  1.3901 -0.1007
24147SOL     OW73881   0.652   2.415   2.127  0.4504 -0.2298  0.3006
24147SOL    HW173882   0.703   2.344   2.166  2.9998  1.4835  0.2972
24147SOL    HW273883   0.717   2.468   2.079 -1.7993  0.4042 -2.3200
24148SOL     OW73884   7.720   2.888   2.708  0.2298 -0.2042 -0.1617
24148SOL    HW173885   7.659   2.886   2.782 -1.2654  2.3149 -1.2055
24148SOL    HW273886   7.795   2.938   2.740 -0.1096  0.2912 -0.1284
24149SOL     OW73887   0.845   3.747   1.135  0.3738  0.3133 -0.3816
24149SOL    HW173888   0.935   3.770   1.158 -0.1510  2.5799 -0.3843
24149SOL    HW273889   0.794   3.769   1.214 -0.3759  0.6117 -0.9349
24150SOL     OW73890   7.814   2.820   3.210  0.1998 -0.1613 -0.1217
24150SOL    HW173891   7.812   2.915   3.214 -0.6791 -0.1213 -1.0455
24150SOL    HW273892   7.724   2.793   3.229  0.6171 -0.8625  0.9640
24151SOL     OW73893   0.260   1.772   1.741  0.0363 -0.2862 -0.0486
24151SOL    HW173894   0.167   1.792   1.751  0.2563  0.3471  0.8374
24151SOL    HW273895   0.262   1.694   1.685 -0.9681  0.4321 -1.1243
24152SOL     OW73896   7.966   3.500   1.067  0.0342 -0.2474  0.9167
24152SOL    HW173897   7.966   3.594   1.048  2.1450  0.0398  2.0952
24152SOL    HW273898   8.006   3.459   0.990  0.3179 -0.0372  0.9515
24153SOL     OW73899   6.694   4.091   1.941 -0.0600  0.1594  0.1212
24153SOL    HW173900   6.624   4.026   1.932  0.4506 -0.1742 -2.0280
24153SOL    HW273901   6.747   4.080   1.862  0.9221  2.1726  0.4343
24154SOL     OW73902   7.227   2.559   1.583 -0.1137  0.1791  0.2826
24154SOL    HW173903   7.163   2.489   1.575 -0.6503  0.4556  1.9701
24154SOL    HW273904   7.267   2.547   1.669 -0.5428  2.1954  0.8189
24155SOL     OW73905   0.418   4.508   1.589  0.0855 -0.1472  0.2265
24155SOL    HW173906   0.439   4.462   1.671 -0.0817 -0.4228  0.1123
24155SOL    HW273907   0.343   4.461   1.553  0.9316 -0.8026 -0.7211
24156SOL     OW73908   6.417   4.207   2.917 -0.1889  0.5011  0.2816
24156SOL    HW173909   6.448   4.233   3.004  0.1381  1.2922 -0.0589
24156SOL    HW273910   6.328   4.175   2.932  0.2821 -0.4955  1.0768
24157SOL     OW73911   5.069   4.036   3.755  0.5825 -0.2366  0.1554
24157SOL    HW173912   5.086   4.029   3.849 -1.2833  0.3264  0.5777
24157SOL    HW273913   5.156   4.041   3.716  1.4242  1.4388  2.0260
24158SOL     OW73914   7.120   3.580   1.911 -0.7236  0.2422  0.0605
24158SOL    HW173915   7.173   3.507   1.878  0.5117 -0.4745  3.2199
24158SOL    HW273916   7.041   3.538   1.945 -0.9539  0.6325  0.0039
24159SOL     OW73917   0.210   4.243   3.807 -0.2778 -0.3064 -0.2552
24159SOL    HW173918   0.216   4.302   3.882  2.3725 -1.1084  0.2902
24159SOL    HW273919   0.210   4.155   3.846 -1.4810 -0.7258 -1.1411
24160SOL     OW73920   5.761   2.231   3.345  0.4420  0.9619 -0.4760
24160SOL    HW173921   5.765   2.271   3.432 -0.9766  0.8274 -0.3218
24160SOL    HW273922   5.678   2.262   3.308  0.3499 -0.0950 -1.2095
24161SOL     OW73923   0.158   4.003   3.121  0.6904  0.1408  0.6978
24161SOL    HW173924   0.143   3.940   3.050  0.8809  1.0632 -0.1734
24161SOL    HW273925   0.080   3.996   3.176  0.5940 -0.6656  0.4744
24162SOL     OW73926   7.699   3.035   2.358 -0.5540  0.3842 -0.4285
24162SOL    HW173927   7.762   3.054   2.428 -0.5716 -0.4231 -0.1899
24162SOL    HW273928   7.736   2.960   2.312 -0.4742  0.9845 -1.3847
24163SOL     OW73929   6.750   3.799   2.879  0.2588  0.0473  0.2166
24163SOL    HW173930   6.687   3.731   2.902  0.6947 -0.5127 -0.2129
24163SOL    HW273931   6.822   3.786   2.941  0.2987  0.1850  0.1993
24164SOL     OW73932   0.371   3.536   1.423 -0.4360  0.4499 -0.3583
24164SOL    HW173933   0.428   3.544   1.500  1.3525  0.3323 -1.5990
24164SOL    HW273934   0.299   3.596   1.440 -0.5090 -0.1577  1.7528
24165SOL     OW73935   0.465   3.171   2.892  0.6697 -0.3364  0.1569
24165SOL    HW173936   0.393   3.197   2.949 -0.7132  1.3507 -2.1742
24165SOL    HW273937   0.540   3.220   2.924 -0.0897  0.5989  0.5375
24166SOL     OW73938   7.283   2.695   4.672  0.0777  0.2768 -0.0074
24166SOL    HW173939   7.216   2.744   4.719 -1.1161 -0.2480 -1.1020
24166SOL    HW273940   7.341   2.661   4.741 -2.3998 -1.6846  1.3089
24167SOL     OW73941   6.573   3.850   4.350  0.3646  0.3993 -0.2777
24167SOL    HW173942   6.642   3.914   4.335 -1.1497  2.2643  0.1620
24167SOL    HW273943   6.540   3.828   4.263  2.2640 -1.4943 -0.5900
24168SOL     OW73944   6.744   2.977   3.675 -0.0156  0.0230  0.1849
24168SOL    HW173945   6.826   2.941   3.707  0.6215  0.6055 -0.7516
24168SOL    HW273946   6.727   3.052   3.733 -0.0760 -0.3040  0.5957
24169SOL     OW73947   7.442   3.468   2.873  0.2161 -0.2240 -0.2833
24169SOL    HW173948   7.502   3.484   2.801 -0.3022  2.2927 -0.2431
24169SOL    HW273949   7.363   3.436   2.832  0.3220  0.0826 -0.7364
24170SOL     OW73950   1.053   1.344   2.898 -0.6014  0.1086  0.9191
24170SOL    HW173951   0.971   1.391   2.907 -1.4647 -1.2929  0.6264
24170SOL    HW273952   1.032   1.253   2.918  0.7939 -0.3498  0.4633
24171SOL     OW73953   1.152   0.982   1.502 -0.1673 -0.2421  0.4254
24171SOL    HW173954   1.193   0.951   1.421  0.8288  0.2868  0.7059
24171SOL    HW273955   1.065   1.013   1.475 -0.2396 -1.0147 -0.2567
24172SOL     OW73956   7.331   4.398   2.941 -0.2045  0.1682  0.6803
24172SOL    HW173957   7.415   4.408   2.987 -0.4350  1.3298  0.8773
24172SOL    HW273958   7.266   4.397   3.011 -0.3981 -0.2317  0.4966
24173SOL     OW73959   7.975   2.599   3.329  0.2911  0.1870 -0.0216
24173SOL    HW173960   7.934   2.681   3.301 -0.5093  0.1122  0.8509
24173SOL    HW273961   8.069   2.617   3.328  0.0823  1.5773  1.4846
24174SOL     OW73962   6.921   1.868   3.537  0.1745  0.0945 -0.0756
24174SOL    HW173963   6.869   1.926   3.482  2.2635 -0.4704 -2.8601
24174SOL    HW273964   6.858   1.808   3.576 -1.4382  0.7123 -1.6311
24175SOL     OW73965   7.872   3.677   2.474  0.3838  0.4501  0.5718
24175SOL    HW173966   7.858   3.769   2.496 -1.8537 -0.2864  2.5781
24175SOL    HW273967   7.809   3.660   2.404  0.3934  0.2776  0.6059
24176SOL     OW73968   0.967   3.174   2.101  0.0420  0.2108  0.4858
24176SOL    HW173969   0.991   3.145   2.013  0.3415  0.3226  0.5300
24176SOL    HW273970   0.905   3.107   2.132 -0.8805  0.7227 -0.2048
24177SOL     OW73971   1.392   1.617   3.564  0.1229  0.7250  0.0986
24177SOL    HW173972   1.357   1.661   3.486 -0.2383 -0.7745 -0.6312
24177SOL    HW273973   1.357   1.529   3.559  0.8026  0.3461  1.5218
24178SOL     OW73974   6.641   4.461   2.800 -0.5365 -0.2984 -0.5338
24178SOL    HW173975   6.654   4.514   2.879 -3.4662 -0.9786  0.5575
24178SOL    HW273976   6.689   4.507   2.732  0.1846  1.6213  1.1644
24179SOL     OW73977   7.861   3.480   2.104  0.9232  0.2640 -0.0109
24179SOL    HW173978   7.821   3.533   2.173  0.1699 -0.8855  0.4698
24179SOL    HW273979   7.802   3.491   2.029  1.9595  1.8338 -0.6254
24180SOL     OW73980   0.554   0.177   5.987  0.1618 -0.1817  0.5420
24180SOL    HW173981   0.483   0.165   5.924  1.0575 -1.6202 -0.2686
24180SOL    HW273982   0.531   0.256   6.035 -0.4677  1.1089 -1.7209
24181SOL     OW73983   0.864   3.217   3.861  0.2285  0.7496  0.3119
24181SOL    HW173984   0.853   3.169   3.943  1.0753  2.2881  1.3706
24181SOL    HW273985   0.814   3.298   3.873  1.3756  1.5648 -0.1780
24182SOL     OW73986   5.296   3.086   3.698  0.1575 -0.1170 -0.1161
24182SOL    HW173987   5.271   3.055   3.785  2.3830 -1.7222  0.0278
24182SOL    HW273988   5.251   3.170   3.689  0.1052  0.2622  2.7260
24183SOL     OW73989   6.606   3.361   3.625  0.0282  0.1816 -0.5529
24183SOL    HW173990   6.544   3.350   3.697 -1.0195  0.7291 -1.3438
24183SOL    HW273991   6.565   3.318   3.551  1.4163 -0.9947 -0.6849
24184SOL     OW73992   5.895   1.857   2.370 -0.3181 -0.6997 -0.1641
24184SOL    HW173993   5.871   1.935   2.420 -1.1516 -0.0641 -1.4814
24184SOL    HW273994   5.861   1.784   2.421  0.4420 -0.2225  1.0737
24185SOL     OW73995   6.595   2.207   4.687  0.5795  0.2988  0.1123
24185SOL    HW173996   6.658   2.278   4.684  0.1391  0.6813 -0.2365
24185SOL    HW273997   6.635   2.142   4.744  0.4169  1.3858  1.5280
24186SOL     OW73998   0.801   4.034   4.632 -0.3704 -0.3080 -0.0727
24186SOL    HW173999   0.805   3.957   4.575  1.7635 -1.8832  1.9668
24186SOL    HW274000   0.872   4.090   4.602 -0.7378 -0.0149 -0.4005
24187SOL     OW74001   2.764   4.388   4.373 -0.0302 -0.6837 -0.7812
24187SOL    HW174002   2.769   4.295   4.351 -0.3708 -1.1287  0.8791
24187SOL    HW274003   2.807   4.395   4.458 -0.1854  0.6452 -0.7908
24188SOL     OW74004   7.782   3.870   0.928  0.0473  0.1757  0.1380
24188SOL    HW174005   7.764   3.936   0.995  1.0840  1.3634 -0.7215
24188SOL    HW274006   7.695   3.840   0.901 -0.4554  1.2798  0.4557
24189SOL     OW74007   7.964   4.799   1.986 -0.0225 -0.8951  0.0409
24189SOL    HW174008   7.888   4.851   1.963  0.2163  0.4722  2.0208
24189SOL    HW274009   8.014   4.791   1.905 -1.7095 -0.8851 -1.0336
24190SOL     OW74010   5.541   2.161   4.517 -0.0779 -1.2268  0.4398
24190SOL    HW174011   5.603   2.109   4.567  0.7203 -1.5110 -0.7951
24190SOL    HW274012   5.581   2.247   4.510  0.7332 -1.6876 -1.2339
24191SOL     OW74013   7.628   2.169   2.740 -0.1070  0.2593 -0.2523
24191SOL    HW174014   7.661   2.256   2.763 -1.2536  0.3374  1.2410
24191SOL    HW274015   7.645   2.116   2.817  1.0496 -1.0229 -1.3367
24192SOL     OW74016   0.233   2.520   2.756  0.1782  0.5177  0.0460
24192SOL    HW174017   0.306   2.483   2.805  0.2725  0.5428 -0.0739
24192SOL    HW274018   0.215   2.604   2.800 -2.0291 -0.9708  2.2556
24193SOL     OW74019   7.171   3.779   3.575 -0.2722 -0.4278 -0.3404
24193SOL    HW174020   7.122   3.713   3.625 -1.0293 -0.2530 -0.8300
24193SOL    HW274021   7.151   3.759   3.484  0.7082 -0.4397 -0.5599
24194SOL     OW74022   7.135   1.880   3.285 -0.1670 -0.3742 -0.0293
24194SOL    HW174023   7.079   1.848   3.356 -1.0670  0.1119 -0.5045
24194SOL    HW274024   7.124   1.975   3.287 -0.4566 -0.3802 -1.0131
24195SOL     OW74025   7.079   2.150   4.781 -0.6637 -0.2232  0.1781
24195SOL    HW174026   7.137   2.218   4.813  0.8403 -2.0335  1.5654
24195SOL    HW274027   6.997   2.163   4.829 -0.8158  1.2464 -0.4375
24196SOL     OW74028   1.131   2.917   1.369 -0.4575 -0.0493 -0.0071
24196SOL    HW174029   1.072   2.935   1.296 -0.8028  3.1989  0.8763
24196SOL    HW274030   1.136   3.001   1.416  1.8716 -1.2612  2.1436
24197SOL     OW74031   5.490   4.162   2.144 -0.2164  0.5581 -0.5119
24197SOL    HW174032   5.470   4.238   2.198  0.8718  0.5426 -0.0676
24197SOL    HW274033   5.421   4.099   2.165  0.5478  0.2910  1.3952
24198SOL     OW74034   0.786   2.996   3.449 -0.0739  0.6126  0.4672
24198SOL    HW174035   0.743   2.999   3.534  0.9183 -2.2052  1.1545
24198SOL    HW274036   0.717   3.018   3.387 -1.9036 -1.1971  1.7151
24199SOL     OW74037   1.034   4.765   1.900  0.1572  0.5311 -0.0000
24199SOL    HW174038   1.008   4.785   1.990 -0.0182  0.8834 -0.1285
24199SOL    HW274039   1.087   4.840   1.873  0.3199  0.3642 -0.1445
24200SOL     OW74040   1.311   3.669   3.320 -0.0827 -0.1133 -0.2205
24200SOL    HW174041   1.267   3.617   3.388 -0.1082  1.7259  1.2346
24200SOL    HW274042   1.397   3.688   3.357 -0.3003  1.3959 -0.4355
24201SOL     OW74043   0.465   2.267   1.804  0.3234 -0.4535 -0.3793
24201SOL    HW174044   0.438   2.312   1.884 -2.1931  0.5298 -1.6569
24201SOL    HW274045   0.453   2.174   1.824 -0.8451 -0.1938  0.2423
24202SOL     OW74046   7.607   1.821   5.226 -0.2680  0.0601 -0.4762
24202SOL    HW174047   7.570   1.733   5.223 -0.9789  0.2944  0.7226
24202SOL    HW274048   7.702   1.807   5.220 -0.3066 -0.8801  0.7791
24203SOL     OW74049   6.263   1.501   1.722 -0.7073 -0.2557  0.0662
24203SOL    HW174050   6.285   1.419   1.766  1.2727  0.0491 -0.2508
24203SOL    HW274051   6.323   1.505   1.647 -0.0488  1.9260  0.6324
24204SOL     OW74052   6.924   2.266   2.051  0.1021 -0.5332 -0.6314
24204SOL    HW174053   6.923   2.172   2.037  1.6098 -0.8787  1.1530
24204SOL    HW274054   7.017   2.290   2.052 -0.0955  0.4398  1.7975
24205SOL     OW74055   6.608   3.563   2.935  0.1964  0.3144 -0.0759
24205SOL    HW174056   6.547   3.602   2.998  0.2785  1.4244 -0.6539
24205SOL    HW274057   6.605   3.469   2.954  0.0198  0.5853  1.3955
24206SOL     OW74058   0.175   5.671   5.463  0.4509  0.5004 -0.4175
24206SOL    HW174059   0.150   5.634   5.547  1.3692 -0.5880 -0.5995
24206SOL    HW274060   0.095   5.713   5.431 -0.1817  0.0702  0.5386
24207SOL     OW74061   6.957   3.186   1.038 -0.1085 -0.3238  0.5906
24207SOL    HW174062   6.985   3.276   1.021  3.0630 -1.1570  0.6897
24207SOL    HW274063   6.865   3.184   1.011 -0.9062  3.3831  2.3767
24208SOL     OW74064   0.421   3.145   2.428  0.2188  0.1015 -0.7014
24208SOL    HW174065   0.352   3.080   2.427  1.1254 -0.9049 -0.1453
24208SOL    HW274066   0.452   3.146   2.519 -0.9094  2.5594 -0.2568
24209SOL     OW74067   7.770   2.297   2.936 -0.1416  0.5330  0.2651
24209SOL    HW174068   7.814   2.213   2.951  1.0353  1.1999  0.7689
24209SOL    HW274069   7.773   2.340   3.022 -0.6133  1.1308 -0.0171
24210SOL     OW74070   7.509   3.597   1.360 -0.4459  0.0069 -0.0906
24210SOL    HW174071   7.572   3.536   1.322 -1.5367 -0.9939 -0.3543
24210SOL    HW274072   7.508   3.575   1.453 -1.7135 -1.2429 -0.3663
24211SOL     OW74073   6.994   5.015   2.773 -0.8994  0.3450  0.3475
24211SOL    HW174074   7.019   4.945   2.834 -1.5083  0.3858  0.6518
24211SOL    HW274075   6.927   4.975   2.718  1.3626 -0.5119 -1.9939
24212SOL     OW74076   7.690   2.860   5.332 -0.5766  0.3701 -0.2177
24212SOL    HW174077   7.609   2.862   5.383 -0.8964 -1.0239 -0.6305
24212SOL    HW274078   7.745   2.928   5.372 -0.6635 -0.8632  2.2269
24213SOL     OW74079   7.221   2.945   4.074 -0.3627 -0.1556  0.1395
24213SOL    HW174080   7.154   2.877   4.064  1.5199 -2.1056  0.2908
24213SOL    HW274081   7.193   2.995   4.150 -1.2499 -1.4365  0.6890
24214SOL     OW74082   6.782   3.285   5.946  0.3453  0.6017 -0.4163
24214SOL    HW174083   6.842   3.350   5.908  0.4198  1.2009  0.6749
24214SOL    HW274084   6.701   3.297   5.898  0.5358  1.1169 -0.6245
24215SOL     OW74085   0.491   2.040   5.445  0.7129 -0.1301 -0.1844
24215SOL    HW174086   0.463   2.070   5.531 -0.6293 -0.1077 -0.6007
24215SOL    HW274087   0.476   1.945   5.447  0.1068 -0.0495 -0.5797
24216SOL     OW74088   7.603   3.494   4.131 -0.3148  0.5038  0.4381
24216SOL    HW174089   7.567   3.407   4.112  1.1698 -0.1374  0.4322
24216SOL    HW274090   7.595   3.504   4.226 -0.0221  0.1433  0.5003
24217SOL     OW74091   0.094   4.108   4.171 -0.1449  0.8984  0.2909
24217SOL    HW174092   0.057   4.195   4.186 -1.3880  0.7901 -1.7458
24217SOL    HW274093   0.094   4.066   4.257  0.1644  2.7682  1.2529
24218SOL     OW74094   0.004   4.396   4.248 -0.4660  0.2759 -0.1178
24218SOL    HW174095   0.082   4.407   4.303 -0.7751  0.9816  0.2012
24218SOL    HW274096  -0.067   4.437   4.299 -1.4843 -2.1438  0.5586
24219SOL     OW74097   7.636   3.687   5.109 -0.0772 -0.2582 -0.5047
24219SOL    HW174098   7.724   3.671   5.073 -0.1979 -1.8454 -0.1673
24219SOL    HW274099   7.595   3.601   5.109 -0.9590  0.1296  1.1573
24220SOL     OW74100   0.253   4.746   2.521  0.0725  0.1318 -0.3104
24220SOL    HW174101   0.228   4.830   2.558  0.3959  0.4079 -0.7038
24220SOL    HW274102   0.170   4.701   2.505 -0.0634 -0.0670  0.8852
24221SOL     OW74103   1.363   3.983   5.418 -0.0082 -0.3687 -0.1479
24221SOL    HW174104   1.379   4.077   5.406 -0.1152 -0.4564 -0.9981
24221SOL    HW274105   1.301   3.960   5.349 -0.1174 -1.0317  0.1668
24222SOL     OW74106   0.202   3.235   4.360  0.3349  0.0961  0.3598
24222SOL    HW174107   0.178   3.249   4.452 -1.4238  0.8652 -0.1842
24222SOL    HW274108   0.233   3.144   4.358  0.4651  0.0809  1.7210
24223SOL     OW74109   7.584   2.829   4.520  0.2536  0.5981  0.2787
24223SOL    HW174110   7.584   2.891   4.593  0.2268 -0.1931  0.9669
24223SOL    HW274111   7.606   2.745   4.560  1.3180  0.3376 -0.7976
24224SOL     OW74112   1.960   2.284   4.280 -0.3708 -0.0306  0.1744
24224SOL    HW174113   1.940   2.375   4.255 -1.2673  0.0955  1.2617
24224SOL    HW274114   1.941   2.281   4.374 -0.7179 -1.4461  0.0698
24225SOL     OW74115   7.382   2.961   4.837 -0.1484  0.5558 -0.4181
24225SOL    HW174116   7.404   2.900   4.907 -1.7043  1.6272  1.0913
24225SOL    HW274117   7.450   2.948   4.771 -0.6680 -3.1580 -0.4633
24226SOL     OW74118   6.959   4.253   4.989  0.2870 -0.7886  0.1975
24226SOL    HW174119   7.053   4.265   5.002  0.0049  1.0928  0.8072
24226SOL    HW274120   6.946   4.158   4.995  2.0185 -1.0261  0.8364
24227SOL     OW74121   0.382   3.108   3.502  0.1692  0.1315  0.1291
24227SOL    HW174122   0.409   3.193   3.538 -1.2903  0.7699 -0.1597
24227SOL    HW274123   0.338   3.064   3.575  0.8918 -0.3728  0.2672
24228SOL     OW74124   7.957   3.306   5.159 -0.0143 -0.1258 -0.1968
24228SOL    HW174125   8.010   3.385   5.170  1.0841 -0.9028  0.2787
24228SOL    HW274126   8.019   3.234   5.172 -1.1408 -1.0644  0.1186
24229SOL     OW74127   7.051   2.938   3.373 -0.2007 -0.2311  0.0861
24229SOL    HW174128   7.105   3.015   3.390  0.1903 -0.3630 -0.5170
24229SOL    HW274129   7.070   2.879   3.446 -0.5352  0.2596  0.5735
24230SOL     OW74130   1.121   3.700   5.906 -0.8759  0.4855  0.4484
24230SOL    HW174131   1.141   3.785   5.865 -0.8797  0.8463  1.1862
24230SOL    HW274132   1.065   3.656   5.842 -0.0764  0.6310 -0.3836
24231SOL     OW74133   7.372   1.730   4.627  0.4876 -0.1516  0.5776
24231SOL    HW174134   7.278   1.745   4.617  0.8837  1.6130 -1.2211
24231SOL    HW274135   7.384   1.638   4.602 -0.3752  0.5863 -3.2742
24232SOL     OW74136   1.113   2.339   5.651  0.6446  0.3685  0.4124
24232SOL    HW174137   1.050   2.348   5.723  0.9314  0.0917  0.7049
24232SOL    HW274138   1.131   2.245   5.647 -0.4192  0.1949 -0.9469
24233SOL     OW74139   7.797   3.262   4.410 -0.0886 -0.8262 -1.0732
24233SOL    HW174140   7.862   3.310   4.358  0.8038 -0.2078  0.5286
24233SOL    HW274141   7.849   3.209   4.470 -1.0522 -0.7076 -0.1037
24234SOL     OW74142   0.738   4.589   3.464  0.1299 -0.7946  0.1557
24234SOL    HW174143   0.752   4.682   3.448 -1.3031 -0.7373 -0.8666
24234SOL    HW274144   0.798   4.545   3.404  1.5117 -0.5676  1.3106
24235SOL     OW74145   2.666   1.708   6.088  0.7979  0.1032 -0.1662
24235SOL    HW174146   2.638   1.649   6.018  1.6427 -0.6921  0.1428
24235SOL    HW274147   2.633   1.669   6.168  0.6430  0.5048 -0.0305
24236SOL     OW74148   6.939   3.252   5.544  0.2189 -0.2679 -0.1785
24236SOL    HW174149   6.895   3.320   5.492 -0.8484 -1.8156 -1.3851
24236SOL    HW274150   7.031   3.276   5.541  0.0694  0.2753 -1.9705
24237SOL     OW74151   0.279   4.148   3.324  0.1084 -0.6339 -0.1367
24237SOL    HW174152   0.222   4.102   3.263  0.8182 -2.2607  0.3665
24237SOL    HW274153   0.264   4.105   3.409 -1.7626  2.3564  1.2088
24238SOL     OW74154   7.951   3.126   6.829 -0.4335  0.2287 -0.0055
24238SOL    HW174155   7.957   3.032   6.846 -0.3888  0.3185  0.4934
24238SOL    HW274156   7.870   3.153   6.871  0.4352  0.7289  1.4433
24239SOL     OW74157   0.059   2.848   4.970  0.2517 -1.2563  0.0181
24239SOL    HW174158   0.153   2.833   4.956  0.7675  1.2255  0.2513
24239SOL    HW274159   0.053   2.876   5.061 -0.2607  1.1955 -0.7050
24240SOL     OW74160   5.710   3.154   3.537  0.1852 -0.1655 -0.0151
24240SOL    HW174161   5.751   3.077   3.498  1.4458  0.2717  0.4105
24240SOL    HW274162   5.624   3.158   3.496  1.1423 -0.1847 -2.1397
24241SOL     OW74163   6.782   4.949   4.402 -0.3696  0.1779  0.1422
24241SOL    HW174164   6.705   4.896   4.425 -0.2232 -0.1912 -0.2028
24241SOL    HW274165   6.829   4.896   4.337 -0.1576  0.6788 -0.1201
24242SOL     OW74166   0.450   4.255   4.593  0.2630 -0.1205  0.1302
24242SOL    HW174167   0.377   4.290   4.541 -1.2243  0.0571  2.2347
24242SOL    HW274168   0.495   4.332   4.626 -0.5748 -0.1618  1.4479
24243SOL     OW74169   6.805   4.140   5.769  0.4754  0.0336  0.3026
24243SOL    HW174170   6.776   4.204   5.705  1.0985 -0.8472 -0.8914
24243SOL    HW274171   6.732   4.134   5.831 -0.2058  0.7820 -0.4034
24244SOL     OW74172   7.147   3.828   6.968 -0.4137 -0.0672 -0.5014
24244SOL    HW174173   7.133   3.863   6.880 -0.7505 -0.9059 -0.7901
24244SOL    HW274174   7.200   3.749   6.955 -0.2247 -0.0391  0.0699
24245SOL     OW74175   1.399   1.002   5.668  0.2426 -0.0507 -0.1914
24245SOL    HW174176   1.349   1.052   5.733  0.6675  0.7740 -0.4874
24245SOL    HW274177   1.333   0.963   5.612 -0.2376 -2.2653  1.7596
24246SOL     OW74178   6.558   2.615   3.562  0.0235  0.4100  0.0382
24246SOL    HW174179   6.556   2.708   3.587  0.9988  0.1951  1.0212
24246SOL    HW274180   6.649   2.589   3.577 -0.7280 -1.2940  2.1384
24247SOL     OW74181   0.713   3.063   5.268 -0.1907 -0.0188  0.5628
24247SOL    HW174182   0.747   3.027   5.186  0.3417  0.8185  0.4135
24247SOL    HW274183   0.742   3.154   5.269  0.2356 -0.1491  1.9141
24248SOL     OW74184   6.957   4.072   4.504  0.0826 -0.4225 -0.4149
24248SOL    HW174185   6.952   4.167   4.494 -0.3777 -0.3852  0.1254
24248SOL    HW274186   6.900   4.038   4.434 -1.8796 -0.2052  0.9740
24249SOL     OW74187   7.093   4.073   5.427  0.8687 -0.3021  0.3367
24249SOL    HW174188   7.024   4.053   5.364  1.3401 -1.7654  0.2582
24249SOL    HW274189   7.090   4.169   5.436  0.6194 -0.0612 -1.7139
24250SOL     OW74190   0.005   4.615   5.824  0.2556  0.0461 -0.1290
24250SOL    HW174191   0.094   4.581   5.819 -0.1954 -1.1405 -0.5112
24250SOL    HW274192  -0.038   4.582   5.745 -0.1345  1.8113 -0.6883
24251SOL     OW74193   6.640   2.326   3.231 -0.0371  0.1876 -0.7642
24251SOL    HW174194   6.646   2.410   3.185 -0.7226  0.5764 -0.1740
24251SOL    HW274195   6.730   2.296   3.238  0.2461  1.0092 -0.7564
24252SOL     OW74196   6.757   2.492   3.982 -0.7863 -0.0002  0.3516
24252SOL    HW174197   6.792   2.467   3.897 -0.4083  2.4836 -0.2976
24252SOL    HW274198   6.815   2.562   4.012 -2.7258  1.3315  1.1789
24253SOL     OW74199   0.997   5.752   5.650 -0.1199 -0.1106  0.0144
24253SOL    HW174200   1.050   5.825   5.618  1.5292 -0.9829  0.6645
24253SOL    HW274201   0.908   5.775   5.624  0.6324  1.0778 -1.7336
24254SOL     OW74202   6.885   2.184   4.414 -0.0599  0.5141 -0.5323
24254SOL    HW174203   6.919   2.247   4.477 -1.8255  2.0915 -1.0726
24254SOL    HW274204   6.896   2.228   4.329 -1.0103 -0.0380 -0.9556
24255SOL     OW74205   7.125   1.536   5.472 -0.0063  0.1396 -0.2667
24255SOL    HW174206   7.155   1.621   5.440 -0.6247  0.1088 -0.9353
24255SOL    HW274207   7.036   1.528   5.440 -0.0058 -0.6983 -0.0724
24256SOL     OW74208   0.936   3.693   3.724  0.2343 -0.1656 -0.1796
24256SOL    HW174209   0.911   3.654   3.807  2.9076 -0.2865  0.6474
24256SOL    HW274210   0.866   3.667   3.663  0.5059 -4.0836  0.9049
24257SOL     OW74211   6.861   3.858   6.377 -0.2294  0.0643  0.3335
24257SOL    HW174212   6.940   3.838   6.326 -0.9463 -0.2089 -0.7121
24257SOL    HW274213   6.789   3.849   6.314 -1.1242  0.0468  1.3281
24258SOL     OW74214   0.422   2.117   3.919  0.2284 -0.5469  0.1645
24258SOL    HW174215   0.463   2.085   3.839  1.1962 -0.3340  0.5632
24258SOL    HW274216   0.402   2.038   3.969 -0.3901 -0.6817 -0.2810
24259SOL     OW74217   7.087   3.267   6.119 -0.2601  0.6680 -0.2074
24259SOL    HW174218   6.998   3.230   6.120 -0.1415  0.3925  0.0671
24259SOL    HW274219   7.086   3.334   6.187 -0.4097  1.0239 -0.5553
24260SOL     OW74220   0.758   3.228   3.037 -0.0667  0.1440 -0.1477
24260SOL    HW174221   0.725   3.202   3.123  0.8472  0.3078  0.2641
24260SOL    HW274222   0.849   3.253   3.052 -0.0955  0.8503 -1.0398
24261SOL     OW74223   6.347   4.150   6.071  0.1692 -0.2345  0.1589
24261SOL    HW174224   6.298   4.080   6.114 -0.5582 -0.0644 -0.3709
24261SOL    HW274225   6.283   4.220   6.059  0.5768  0.0524 -0.4200
24262SOL     OW74226   0.110   2.519   3.647  0.9433 -0.5336  0.4484
24262SOL    HW174227   0.046   2.489   3.712  0.1116  1.5727  0.6772
24262SOL    HW274228   0.097   2.460   3.572 -0.7871 -0.6156  0.7697
24263SOL     OW74229   6.674   3.699   4.542  0.1265  0.4225  0.2772
24263SOL    HW174230   6.626   3.730   4.618  2.2612  0.1606  1.8217
24263SOL    HW274231   6.632   3.744   4.468 -2.1894  0.4664  1.5170
24264SOL     OW74232   0.232   5.296   4.624 -0.2572  0.2365 -0.6824
24264SOL    HW174233   0.258   5.376   4.668  0.5428 -0.8202  0.8397
24264SOL    HW274234   0.151   5.270   4.668  0.2107 -0.4902 -0.2217
24265SOL     OW74235   7.215   3.351   3.249 -0.2841  0.4902 -0.5164
24265SOL    HW174236   7.147   3.359   3.182  0.2549 -0.6627 -1.2404
24265SOL    HW274237   7.166   3.345   3.332 -1.0312  0.4648 -0.9474
24266SOL     OW74238   7.252   4.584   5.470 -0.5747  0.3120 -0.2053
24266SOL    HW174239   7.254   4.494   5.501  0.9917  0.5203  0.4068
24266SOL    HW274240   7.333   4.594   5.420  0.1142  1.8127  1.1200
24267SOL     OW74241   7.227   2.037   4.194 -0.3242 -0.2081  0.3871
24267SOL    HW174242   7.218   2.058   4.101 -0.5639 -0.8764  0.2542
24267SOL    HW274243   7.162   2.093   4.237  1.0210  1.4464  0.3687
24268SOL     OW74244   6.166   3.277   3.280  0.1842 -0.0252 -0.0891
24268SOL    HW174245   6.148   3.271   3.187 -1.8832  1.8891  0.0951
24268SOL    HW274246   6.259   3.301   3.285  0.4652 -0.7142 -1.5994
24269SOL     OW74247   0.980   4.115   6.101  0.2929 -0.0618 -0.2355
24269SOL    HW174248   0.979   4.172   6.024 -1.0335 -0.2521 -0.3901
24269SOL    HW274249   1.052   4.148   6.155  0.1443  1.1568 -0.7601
24270SOL     OW74250   7.353   5.095   4.280 -0.0252 -0.1699  0.2156
24270SOL    HW174251   7.273   5.093   4.334 -0.8745 -0.3786 -1.0183
24270SOL    HW274252   7.344   5.174   4.227  0.0024 -0.8273 -0.7833
24271SOL     OW74253   0.801   2.658   6.619 -0.1435 -0.1856 -0.2213
24271SOL    HW174254   0.783   2.731   6.559  1.0394 -0.5343 -1.0332
24271SOL    HW274255   0.766   2.582   6.573  1.8093 -0.6297 -1.0654
24272SOL     OW74256   6.340   2.464   5.963  0.5172  0.1288 -0.1265
24272SOL    HW174257   6.308   2.498   5.879 -0.3196  0.6760  0.4042
24272SOL    HW274258   6.292   2.382   5.976 -1.7822  1.5851  1.2974
24273SOL     OW74259   7.032   3.181   4.958  0.0370 -0.7425  0.1628
24273SOL    HW174260   6.938   3.198   4.956  0.2760  1.0278  1.3143
24273SOL    HW274261   7.062   3.201   4.869 -0.6450 -1.1649 -0.1716
24274SOL     OW74262   0.287   3.778   5.327 -0.3664  0.2230  0.0059
24274SOL    HW174263   0.344   3.779   5.251  0.3874 -0.7727  0.5370
24274SOL    HW274264   0.343   3.751   5.400 -1.1224  0.9117  0.8778
24275SOL     OW74265   7.321   2.582   6.150  0.2984 -0.0933  0.1759
24275SOL    HW174266   7.374   2.651   6.110 -1.0566  1.4512  0.9285
24275SOL    HW274267   7.252   2.565   6.086 -0.6915  0.9211  0.9451
24276SOL     OW74268   0.511   2.173   6.631 -0.4652  0.7598 -0.4120
24276SOL    HW174269   0.477   2.262   6.621  0.0013  0.8496 -1.2695
24276SOL    HW274270   0.503   2.134   6.544  1.4715  0.7402 -0.6342
24277SOL     OW74271   6.164   3.909   6.971 -0.0029  0.0550  0.5101
24277SOL    HW174272   6.193   3.995   6.940 -1.5511  0.7362  0.8708
24277SOL    HW274273   6.068   3.914   6.972 -0.0943 -0.8013  2.9448
24278SOL     OW74274   0.315   1.848   7.545  0.1094  0.0022 -0.0909
24278SOL    HW174275   0.334   1.762   7.582 -2.6746 -0.1836  1.1827
24278SOL    HW274276   0.245   1.832   7.482  0.0195  1.2396 -0.3283
24279SOL     OW74277   0.373   3.422   7.012  0.0488  0.7332  0.3611
24279SOL    HW174278   0.305   3.382   6.958  1.4268 -1.5579  0.2243
24279SOL    HW274279   0.446   3.437   6.953  1.7978 -2.3512  1.5490
24280SOL     OW74280   0.433   2.943   5.153  0.2856 -0.3508 -0.4896
24280SOL    HW174281   0.482   2.863   5.174  0.9435  0.0221 -0.5628
24280SOL    HW274282   0.498   3.013   5.162  0.2017 -0.0130 -2.2035
24281SOL     OW74283   7.928   2.686   6.233 -0.0216  0.4633  0.1548
24281SOL    HW174284   7.963   2.599   6.217  0.1840  0.6916 -0.6510
24281SOL    HW274285   7.868   2.674   6.307  1.7192  0.0629  1.5728
24282SOL     OW74286   7.877   3.110   4.615  0.0107 -0.3985 -0.1349
24282SOL    HW174287   7.802   3.074   4.663  0.9093 -0.7066  1.1026
24282SOL    HW274288   7.949   3.108   4.679  0.3410  2.7966 -0.2600
24283SOL     OW74289   0.285   3.613   6.684  0.4469 -0.8121  0.7068
24283SOL    HW174290   0.373   3.586   6.711  0.8360 -1.2169 -0.8645
24283SOL    HW274291   0.277   3.704   6.715  0.1314 -1.7824  3.7333
24284SOL     OW74292   7.330   1.599   8.485  0.0555 -0.1820 -0.5389
24284SOL    HW174293   7.394   1.585   8.555  0.6545  2.0296 -0.5719
24284SOL    HW274294   7.378   1.578   8.405  0.0996 -0.4771 -0.4360
24285SOL     OW74295   1.141   1.424   7.121 -0.2067  0.0273 -0.5091
24285SOL    HW174296   1.188   1.417   7.038  1.7540  0.9514  0.4519
24285SOL    HW274297   1.108   1.514   7.122  1.1344  0.5263  0.3652
24286SOL     OW74298   0.700   2.124   7.342 -0.4168 -0.3629  0.2403
24286SOL    HW174299   0.653   2.044   7.368  0.3728 -1.2313 -0.9170
24286SOL    HW274300   0.721   2.167   7.425 -1.2568 -1.1249  0.8675
24287SOL     OW74301   7.259   1.775   5.408  0.4310  0.4994 -0.2435
24287SOL    HW174302   7.329   1.830   5.443 -0.7953  1.6729  0.4760
24287SOL    HW274303   7.211   1.833   5.348  0.1011 -0.2859 -0.7532
24288SOL     OW74304   7.748   2.365   6.903  0.2338 -0.3876 -0.2054
24288SOL    HW174305   7.691   2.294   6.935  0.8081 -0.1490  1.3953
24288SOL    HW274306   7.701   2.445   6.926 -0.0911 -0.2095 -1.4161
24289SOL     OW74307   7.884   4.544   7.707  0.3507  0.1694 -0.5960
24289SOL    HW174308   7.966   4.577   7.672  1.0716 -1.2362 -0.3133
24289SOL    HW274309   7.836   4.622   7.735  2.9948  0.9128  2.3607
24290SOL     OW74310   0.982   2.236   6.122  0.4242 -0.0074 -0.1605
24290SOL    HW174311   1.064   2.281   6.143  1.1343 -0.7568 -1.1994
24290SOL    HW274312   0.918   2.306   6.109  1.0569  0.6171  0.0260
24291SOL     OW74313   0.588   4.299   7.938 -0.2062 -0.0294 -1.0696
24291SOL    HW174314   0.515   4.246   7.971 -1.2666  0.0200 -3.1273
24291SOL    HW274315   0.556   4.390   7.944  0.2382  0.1012 -0.6916
24292SOL     OW74316   1.044   2.623   5.661  0.0520 -0.0340 -0.0322
24292SOL    HW174317   0.990   2.603   5.585  0.7545  0.3084 -0.6416
24292SOL    HW274318   0.985   2.664   5.723 -0.4618 -0.0083 -0.5316
24293SOL     OW74319   7.410   3.073   9.222 -0.1681  0.7807  0.2074
24293SOL    HW174320   7.490   3.125   9.212  0.3541  0.3076  1.6619
24293SOL    HW274321   7.393   3.073   9.316 -1.4108  0.1556  0.0040
24294SOL     OW74322   0.241   2.580   7.310  0.1552  0.4446 -0.0325
24294SOL    HW174323   0.280   2.578   7.223 -0.7073 -0.1072 -0.4220
24294SOL    HW274324   0.161   2.528   7.302 -0.6468  1.5047  0.7356
24295SOL     OW74325   6.683   2.295   7.087  0.1443 -0.0411 -0.0199
24295SOL    HW174326   6.683   2.200   7.100 -2.7309 -0.2695 -0.8718
24295SOL    HW274327   6.701   2.330   7.174 -1.0280 -1.4237  0.8470
24296SOL     OW74328   7.771   2.709   5.733 -0.2745  0.1114  0.1802
24296SOL    HW174329   7.694   2.676   5.687  0.2556  1.0647 -1.5095
24296SOL    HW274330   7.761   2.805   5.731  0.0010  0.1917  1.6963
24297SOL     OW74331   7.652   3.003   4.743  0.6809 -0.2134  0.3579
24297SOL    HW174332   7.713   2.952   4.796 -1.5938 -1.1723  2.2655
24297SOL    HW274333   7.641   3.085   4.792  0.6728  0.0674 -0.1138
24298SOL     OW74334   5.898   3.643   6.162  0.8531 -0.1511  0.0639
24298SOL    HW174335   5.946   3.725   6.152  0.1033  0.3527  0.5104
24298SOL    HW274336   5.810   3.669   6.185  0.4897 -1.0811 -0.2042
24299SOL     OW74337   0.716   1.765   6.874  0.2327  0.2153 -0.5691
24299SOL    HW174338   0.800   1.748   6.831  0.3353 -0.0250 -0.2764
24299SOL    HW274339   0.667   1.683   6.866  0.8494 -0.3462  1.1158
24300SOL     OW74340   0.839   2.707   7.118  0.3945  0.0452  0.3836
24300SOL    HW174341   0.883   2.779   7.071  1.5545  0.6842  2.3536
24300SOL    HW274342   0.878   2.628   7.082  0.6860  0.4741 -0.2727
24301SOL     OW74343   0.241   1.818   5.241 -0.0187 -0.1016  0.2061
24301SOL    HW174344   0.249   1.910   5.218 -1.0955  0.1982  0.9298
24301SOL    HW274345   0.220   1.774   5.158 -3.2190  0.8645  0.3785
24302SOL     OW74346   7.102   3.920   9.187  0.0374 -0.7198 -0.1385
24302SOL    HW174347   7.152   3.839   9.186  0.9589 -0.2439  1.9135
24302SOL    HW274348   7.165   3.988   9.161  0.4070 -0.1725  2.0291
24303SOL     OW74349   6.962   3.339   7.564  0.1816  0.0257 -0.0496
24303SOL    HW174350   6.925   3.344   7.476 -2.7307 -0.5608  1.0384
24303SOL    HW274351   6.958   3.246   7.587  1.0525  0.1495  0.6788
24304SOL     OW74352   2.597   2.242   4.686 -0.4147 -0.4101  0.1183
24304SOL    HW174353   2.688   2.270   4.692 -0.2363 -1.1704  1.2059
24304SOL    HW274354   2.566   2.279   4.603  1.1816 -0.9908 -0.7925
24305SOL     OW74355   0.535   1.902   7.372 -0.1143  0.4459  0.5096
24305SOL    HW174356   0.592   1.825   7.364 -0.8099  0.0900 -1.5639
24305SOL    HW274357   0.500   1.896   7.461  1.0135 -0.7803  0.9153
24306SOL     OW74358   7.367   3.610   7.416  0.0087 -0.1782  0.8137
24306SOL    HW174359   7.318   3.532   7.439 -1.9689  0.9689  0.7136
24306SOL    HW274360   7.458   3.590   7.439 -0.7200 -1.8267  2.4364
24307SOL     OW74361   7.133   3.495   8.510 -0.1449 -1.0475 -0.3813
24307SOL    HW174362   7.097   3.406   8.502 -0.3261 -0.9420 -0.7336
24307SOL    HW274363   7.215   3.483   8.558  0.2385 -1.5092 -1.1322
24308SOL     OW74364   7.820   3.210   8.872  0.7034  0.1456  0.6459
24308SOL    HW174365   7.727   3.233   8.867 -0.1207 -2.9495 -1.3040
24308SOL    HW274366   7.838   3.206   8.966 -1.6120 -0.6806  1.1306
24309SOL     OW74367   6.687   2.076   7.664 -0.0006  0.3265  0.1710
24309SOL    HW174368   6.741   2.140   7.711  1.5189 -1.0417  0.3658
24309SOL    HW274369   6.599   2.087   7.701  0.7506  0.6068  1.9588
24310SOL     OW74370   0.538   0.780   7.070  0.4841  0.0786 -0.2785
24310SOL    HW174371   0.460   0.747   7.027 -1.3387  0.3119  2.6211
24310SOL    HW274372   0.586   0.701   7.096  0.3415 -0.0989 -0.5457
24311SOL     OW74373   6.223   1.714   7.521 -0.6193  0.8860 -0.7016
24311SOL    HW174374   6.191   1.631   7.486 -0.3754  0.7139 -0.5252
24311SOL    HW274375   6.181   1.781   7.467 -3.0698  0.7791  0.9437
24312SOL     OW74376   6.090   1.309   5.237 -0.5302  0.6060  0.2034
24312SOL    HW174377   6.079   1.385   5.180  1.1292  1.1836  0.5916
24312SOL    HW274378   6.114   1.346   5.322 -1.0356 -0.3057  0.7567
24313SOL     OW74379   7.633   1.968   7.596  0.2451 -0.0241  0.1532
24313SOL    HW174380   7.702   2.015   7.548  0.1307 -0.1214 -0.1096
24313SOL    HW274381   7.613   2.025   7.671 -1.6953  1.6565 -1.5144
24314SOL     OW74382   7.995   2.205   6.979 -0.2026  0.5751 -0.0264
24314SOL    HW174383   7.928   2.226   6.914 -1.4218 -1.2079  0.5930
24314SOL    HW274384   7.962   2.128   7.025  1.2883  0.9286  1.7760
24315SOL     OW74385   1.540   1.041   8.196 -1.0043  0.0673  0.0096
24315SOL    HW174386   1.516   1.104   8.264 -1.4585  1.1490 -1.0985
24315SOL    HW274387   1.625   1.071   8.164 -1.5710  0.6309 -1.0527
24316SOL     OW74388   7.058   4.663   8.320  0.1297 -0.1976 -0.0034
24316SOL    HW174389   7.113   4.699   8.251 -0.8780 -0.9235 -1.2334
24316SOL    HW274390   7.119   4.616   8.377  0.7810 -1.3010 -1.5324
24317SOL     OW74391   6.562   3.587   8.816  0.5417 -0.0608 -0.2075
24317SOL    HW174392   6.589   3.547   8.733  1.0006 -0.8646  0.3077
24317SOL    HW274393   6.471   3.612   8.803  0.8263  0.4792 -1.1885
24318SOL     OW74394   7.994   2.507   6.927  0.6369  0.8269  0.8190
24318SOL    HW174395   8.056   2.474   6.863  0.0494  1.2436  0.0204
24318SOL    HW274396   7.910   2.468   6.903  0.3949  1.0332  1.2953
24319SOL     OW74397   0.597   1.514   6.879 -0.0577  0.6360 -0.1287
24319SOL    HW174398   0.673   1.457   6.890  0.3966  1.0664 -0.9374
24319SOL    HW274399   0.550   1.478   6.804  0.4378  1.5259 -0.8886
24320SOL     OW74400   1.820   1.505   6.387  0.0287  0.0435 -0.0159
24320SOL    HW174401   1.793   1.529   6.299  0.9556  1.7728  0.1188
24320SOL    HW274402   1.899   1.557   6.403 -0.3079  0.0402  1.9527
24321SOL     OW74403   0.638   2.726   6.314  0.6384  0.3243  0.8437
24321SOL    HW174404   0.624   2.795   6.380 -0.1154  0.1141  0.9187
24321SOL    HW274405   0.732   2.713   6.312  0.7306  0.8753  1.3328
24322SOL     OW74406   7.127   2.695   3.516 -0.7654 -0.2597  0.2900
24322SOL    HW174407   7.128   2.679   3.611 -1.4728 -1.3038  0.1334
24322SOL    HW274408   7.144   2.610   3.477  1.1712  0.4390 -0.5419
24323SOL     OW74409   7.625   2.004   8.166  0.4139  0.0496  0.3138
24323SOL    HW174410   7.600   2.086   8.210  0.5584  0.0467  0.4024
24323SOL    HW274411   7.707   1.978   8.209  0.4874 -0.0217  0.1283
24324SOL     OW74412   7.625   2.010   6.562 -0.3141 -0.3609 -0.6879
24324SOL    HW174413   7.535   2.040   6.552 -1.0511 -2.1012  0.2793
24324SOL    HW274414   7.621   1.915   6.546  0.8928 -0.8650  1.5224
24325SOL     OW74415   0.157   3.535   8.101 -0.3190 -0.4720  0.7170
24325SOL    HW174416   0.076   3.541   8.050  0.5282 -0.1440 -0.6413
24325SOL    HW274417   0.191   3.448   8.081  1.8652  0.9122 -2.2873
24326SOL     OW74418   1.620   1.109   5.787  0.3086  0.4589  0.2641
24326SOL    HW174419   1.642   1.042   5.851  1.5106  0.5615 -0.0182
24326SOL    HW274420   1.548   1.071   5.736  0.7172 -0.4583  0.3555
24327SOL     OW74421   0.910   4.320   9.086  0.0810  0.0985 -0.4760
24327SOL    HW174422   0.940   4.404   9.050  0.1003  0.0515 -0.5690
24327SOL    HW274423   0.840   4.292   9.027  0.2580 -0.0841 -0.6018
24328SOL     OW74424   0.708   3.857   6.319 -0.5078  0.0077 -0.0701
24328SOL    HW174425   0.700   3.869   6.414  0.5773 -1.0030  0.1788
24328SOL    HW274426   0.652   3.924   6.282 -1.4736  0.0044  1.2995
24329SOL     OW74427   7.305   2.434   4.602 -0.2093  0.3232 -0.1522
24329SOL    HW174428   7.284   2.525   4.624 -0.3400  0.4654 -0.8633
24329SOL    HW274429   7.294   2.387   4.685  0.7926  1.1068  0.4533
24330SOL     OW74430   0.595   2.153   8.497 -0.2471  0.1275  0.4027
24330SOL    HW174431   0.592   2.070   8.545  1.9081 -0.8948 -1.0662
24330SOL    HW274432   0.649   2.211   8.552 -0.2590 -0.0331  0.5861
24331SOL     OW74433   7.950   1.388   5.895 -0.7904  0.3412  0.1998
24331SOL    HW174434   7.908   1.354   5.816  0.0615 -0.4295  0.0501
24331SOL    HW274435   7.881   1.433   5.943 -1.8100 -1.0291  0.0508
24332SOL     OW74436   1.182   3.088   4.733  0.7316  0.0495 -0.4431
24332SOL    HW174437   1.224   3.141   4.800 -0.6442  1.7757 -0.8815
24332SOL    HW274438   1.232   3.006   4.732  1.4011  0.3590  1.9690
24333SOL     OW74439   1.334   2.344   6.621  0.3066 -0.4909  0.3221
24333SOL    HW174440   1.350   2.343   6.715  1.8483 -1.7704  0.0895
24333SOL    HW274441   1.406   2.294   6.584 -0.0708  0.2953 -1.5877
24334SOL     OW74442   6.332   3.233   8.236  0.1957 -0.0089  0.0018
24334SOL    HW174443   6.405   3.172   8.239  0.5094  0.3741  2.6072
24334SOL    HW274444   6.266   3.189   8.182  2.1519 -0.5010 -2.1566
24335SOL     OW74445   0.200   3.159   7.139  0.1465 -0.6297  0.0348
24335SOL    HW174446   0.162   3.246   7.154  0.9735 -0.3098  0.3308
24335SOL    HW274447   0.241   3.164   7.053  3.8652  0.6920  1.6631
24336SOL     OW74448   1.442   0.707   7.064 -0.1753 -0.2044  0.2570
24336SOL    HW174449   1.417   0.764   6.992 -0.8622  1.5776  1.8011
24336SOL    HW274450   1.366   0.706   7.122  1.2625  0.7445  2.3215
24337SOL     OW74451   7.279   4.208   7.912 -0.3038  0.9496  0.2348
24337SOL    HW174452   7.349   4.208   7.847 -0.2902  1.9465  0.2354
24337SOL    HW274453   7.311   4.266   7.981  0.5762 -1.5907  2.1336
24338SOL     OW74454   0.344   1.939   6.702 -0.3467 -0.1809  0.8106
24338SOL    HW174455   0.265   1.930   6.756  1.1487  0.4886  3.2697
24338SOL    HW274456   0.382   2.022   6.730  2.5258 -1.6182  1.5732
24339SOL     OW74457   7.863   0.977   8.388  0.2391  0.4291  0.1518
24339SOL    HW174458   7.882   0.958   8.480 -0.0291  1.1147  0.3533
24339SOL    HW274459   7.809   0.903   8.359 -0.2527  0.5467  0.7482
24340SOL     OW74460   6.344   2.505   9.413 -0.1097  0.2596 -0.3187
24340SOL    HW174461   6.408   2.455   9.463 -0.1120  1.0455  0.5051
24340SOL    HW274462   6.340   2.590   9.458 -0.4518  0.8286 -1.3903
24341SOL     OW74463   2.737   2.853   8.436  0.3746 -0.6545  0.3296
24341SOL    HW174464   2.782   2.883   8.358  1.2341  1.5650  1.5693
24341SOL    HW274465   2.647   2.887   8.427  0.6899  0.3048  0.6204
24342SOL     OW74466   7.237   1.848   8.829  0.2085 -0.8462  0.4704
24342SOL    HW174467   7.298   1.903   8.781 -0.5220  1.3058  1.8175
24342SOL    HW274468   7.282   1.829   8.912 -0.0217 -1.2298  0.5079
24343SOL     OW74469   1.647   3.159   8.944 -0.0623  0.0377  0.4437
24343SOL    HW174470   1.621   3.103   8.871 -0.5887 -0.8450  1.2751
24343SOL    HW274471   1.717   3.214   8.910 -0.5752 -0.0789 -0.8280
24344SOL     OW74472   0.620   3.498   8.276  0.5492 -1.1451 -0.3002
24344SOL    HW174473   0.595   3.481   8.367 -1.0286 -3.8243 -1.1390
24344SOL    HW274474   0.539   3.525   8.234  1.4919  1.2003 -0.7602
24345SOL     OW74475   0.650   2.862   9.072 -0.1849 -0.2351  0.0738
24345SOL    HW174476   0.732   2.829   9.035 -0.1926 -0.9469  0.6810
24345SOL    HW274477   0.586   2.851   9.002  0.2851  0.5953 -0.5103
24346SOL     OW74478   0.935   2.690   7.941  0.0113  0.1867  0.2122
24346SOL    HW174479   0.853   2.720   7.980  1.3900  0.7678  2.9494
24346SOL    HW274480   0.968   2.623   8.002  0.9747 -0.9407 -1.4779
24347SOL     OW74481   0.776   3.996   9.030 -0.2039 -0.1403  0.0641
24347SOL    HW174482   0.771   4.055   8.955 -0.4043 -0.4267 -0.1468
24347SOL    HW274483   0.864   4.010   9.066 -0.2239  0.2297 -0.0315
24348SOL     OW74484   7.924   1.309   7.935 -0.1596  0.4460  0.0529
24348SOL    HW174485   7.860   1.345   7.874  1.9669  0.6658 -2.2015
24348SOL    HW274486   7.953   1.384   7.987  0.1975  0.8945 -0.7813
24349SOL     OW74487   7.410   1.913   7.496 -0.0314 -0.1991  0.1754
24349SOL    HW174488   7.491   1.937   7.540 -0.0719  1.4177 -0.5464
24349SOL    HW274489   7.343   1.966   7.539 -0.1735  0.9066 -1.3012
24350SOL     OW74490   1.447   7.886   8.978  0.3263  0.1523  0.2169
24350SOL    HW174491   1.379   7.919   8.919  0.5967  0.4882  0.0881
24350SOL    HW274492   1.452   7.792   8.960 -0.4719  0.0327  0.6012
24351SOL     OW74493   6.739   1.700   8.140 -0.2170  0.4481  0.4743
24351SOL    HW174494   6.752   1.723   8.232 -3.4382 -0.2859  1.2549
24351SOL    HW274495   6.696   1.776   8.101 -2.9686 -0.7783  0.8483
24352SOL     OW74496   0.122   1.317   8.463 -0.1946 -0.7472  0.1059
24352SOL    HW174497   0.043   1.341   8.510  0.7954  0.6642  1.1125
24352SOL    HW274498   0.099   1.327   8.370 -1.4780 -1.3667  0.3409
24353SOL     OW74499   1.463   2.416   9.472 -0.1819 -0.3684 -0.0796
24353SOL    HW174500   1.402   2.418   9.398  0.9333  1.2434 -1.0249
24353SOL    HW274501   1.544   2.453   9.437  2.0622 -4.1572  0.5526
24354SOL     OW74502   7.686   0.484   9.066  0.0268 -0.5519 -0.1606
24354SOL    HW174503   7.772   0.496   9.024  0.4859  2.2225  1.3186
24354SOL    HW274504   7.706   0.468   9.158 -0.9214  2.9304  0.7970
24355SOL     OW74505   7.414   3.921   8.388  0.5676  0.0561  0.0896
24355SOL    HW174506   7.379   3.862   8.454  0.7268 -0.4596 -0.2825
24355SOL    HW274507   7.386   3.883   8.304  2.3179 -0.5894 -0.2452
24356SOL     OW74508   0.434   2.271   7.572 -0.2372 -0.2042  0.2434
24356SOL    HW174509   0.399   2.360   7.582 -1.1989 -0.3533 -1.5499
24356SOL    HW274510   0.378   2.230   7.506  1.0341 -1.7067  0.0530
24357SOL     OW74511   0.070   0.701  10.896  0.4972  0.3023 -0.2240
24357SOL    HW174512   0.100   0.762  10.828  1.4695 -1.1687 -1.1656
24357SOL    HW274513   0.137   0.706  10.964  1.9064 -1.4076 -1.3780
24358SOL     OW74514   1.044   2.165   8.931  0.0094  0.1311 -0.3862
24358SOL    HW174515   1.098   2.104   8.981 -0.6537  0.3359  0.6076
24358SOL    HW274516   1.020   2.117   8.852  1.5201 -0.0119 -0.7972
24359SOL     OW74517   0.989   2.742   8.611 -0.4562  0.5301 -0.2377
24359SOL    HW174518   1.065   2.686   8.594 -0.7605 -0.5741  1.7752
24359SOL    HW274519   1.026   2.823   8.646 -0.1784  0.3458 -0.1056
24360SOL     OW74520   0.407   2.312   9.236 -0.0973  0.2508  0.2439
24360SOL    HW174521   0.406   2.335   9.143  1.3592 -0.8836 -0.0871
24360SOL    HW274522   0.394   2.217   9.239 -1.6545  0.4442  1.3253
24361SOL     OW74523   0.308   2.956   7.682 -0.2954  0.2939  0.2363
24361SOL    HW174524   0.351   3.041   7.688 -0.5132  0.3331  1.5141
24361SOL    HW274525   0.375   2.893   7.708 -0.7586  0.2849  1.4564
24362SOL     OW74526   0.156   0.718   7.670 -0.2008 -0.7129 -0.1063
24362SOL    HW174527   0.123   0.703   7.758  0.3406  0.3893  0.2971
24362SOL    HW274528   0.077   0.732   7.617 -0.4707  0.3838  0.5571
24363SOL     OW74529   0.374   0.952   7.681 -0.3797 -0.6771 -0.3269
24363SOL    HW174530   0.297   0.895   7.687 -0.2552 -0.8095  0.0573
24363SOL    HW274531   0.338   1.038   7.661 -0.4792 -1.1276 -2.3006
24364SOL     OW74532   7.774   2.835   9.496  1.5277 -0.2576  0.2172
24364SOL    HW174533   7.797   2.819   9.404  1.3144  0.9076 -0.0563
24364SOL    HW274534   7.681   2.811   9.502  0.9175  1.7854 -0.4516
24365SOL     OW74535   1.963   1.101   8.937  0.2590 -0.0851  0.3327
24365SOL    HW174536   2.050   1.141   8.931  0.8444 -1.4592 -0.7551
24365SOL    HW274537   1.944   1.099   9.031  1.9706 -0.9276  0.6987
24366SOL     OW74538   0.994   1.547   8.398  0.1147 -0.4663  0.5795
24366SOL    HW174539   0.933   1.605   8.353  1.3575 -0.8781 -1.7950
24366SOL    HW274540   0.943   1.467   8.413 -0.7820  0.2253  1.3952
24367SOL     OW74541   1.997   0.624  10.323  0.3262 -0.0955  0.4041
24367SOL    HW174542   2.033   0.649  10.408 -1.1262 -0.8748  1.2836
24367SOL    HW274543   1.906   0.652  10.326 -0.1433 -1.4559 -0.2998
24368SOL     OW74544   6.758   2.497  10.429 -0.4528  0.1887  0.0823
24368SOL    HW174545   6.737   2.545  10.510  0.1290 -0.1603  0.4501
24368SOL    HW274546   6.842   2.534  10.401 -0.0915 -0.4728  0.2697
24369SOL     OW74547   0.749   4.432   9.302  0.0987  0.0036 -0.5212
24369SOL    HW174548   0.829   4.410   9.254  0.1201 -1.2262  0.0518
24369SOL    HW274549   0.678   4.408   9.242  0.1006 -2.3638  0.3081
24370SOL     OW74550   1.422   4.388  10.303  0.4833  0.3318 -0.4062
24370SOL    HW174551   1.444   4.313  10.248 -0.8097  0.0196 -0.5419
24370SOL    HW274552   1.339   4.364  10.344 -1.3402  2.6834 -2.3996
24371SOL     OW74553   1.346   3.330   9.073  0.2861  0.2180 -0.2732
24371SOL    HW174554   1.414   3.355   9.135  0.7894 -0.9403 -0.3367
24371SOL    HW274555   1.323   3.412   9.029  1.3354  0.7015  0.0471
24372SOL     OW74556   1.715   2.157   9.047 -0.6323 -0.1293 -0.4043
24372SOL    HW174557   1.727   2.252   9.040 -1.0532 -0.0726 -0.4139
24372SOL    HW274558   1.752   2.134   9.132 -2.1523  0.3281  0.4289
24373SOL     OW74559   1.505   1.866  10.039 -0.1898 -0.1531  0.6024
24373SOL    HW174560   1.435   1.880   9.975  1.3115 -1.4234 -1.4439
24373SOL    HW274561   1.514   1.951  10.084 -2.2761  0.3376  0.1943
24374SOL     OW74562   2.157   2.200   9.675  0.2680  0.1478  0.3406
24374SOL    HW174563   2.120   2.231   9.758 -0.4095  0.5030 -0.0777
24374SOL    HW274564   2.207   2.122   9.698 -2.5932 -1.7467  0.6584
24375SOL     OW74565   6.291   1.918   8.165  0.6676 -0.4823 -0.2140
24375SOL    HW174566   6.258   1.832   8.190  1.2051 -0.4994  0.4862
24375SOL    HW274567   6.347   1.902   8.089  0.5811 -0.7181 -0.2265
24376SOL     OW74568   6.975   2.810   9.318  0.2167 -0.6883  0.5122
24376SOL    HW174569   6.914   2.757   9.370 -2.2470  0.4050 -1.0874
24376SOL    HW274570   6.937   2.812   9.231  1.7967  1.3104 -0.2033
24377SOL     OW74571   0.317   2.156   9.809 -0.5707  0.0904  0.8756
24377SOL    HW174572   0.361   2.082   9.768  0.7691  1.5267 -0.4332
24377SOL    HW274573   0.248   2.117   9.862 -1.2607 -1.9980 -1.3756
24378SOL     OW74574   1.185   2.810   8.893  0.2955  0.5577 -0.0165
24378SOL    HW174575   1.182   2.764   8.977 -0.1385  0.1942 -0.2265
24378SOL    HW274576   1.278   2.820   8.874  0.3992 -0.6344 -0.1834
24379SOL     OW74577   7.435   3.392   9.289  0.1465  0.0183  0.2124
24379SOL    HW174578   7.434   3.486   9.269  1.9575 -0.1715 -1.0844
24379SOL    HW274579   7.528   3.369   9.290 -0.0611 -1.1995  3.5850
24380SOL     OW74580   6.360   3.204   8.543  0.2123  0.2130 -0.1120
24380SOL    HW174581   6.431   3.175   8.602  1.3084  2.7139 -0.0732
24380SOL    HW274582   6.390   3.179   8.456 -1.1720 -3.0307  0.2120
24381SOL     OW74583   6.825   2.172   7.913 -0.2663 -0.2993  0.0611
24381SOL    HW174584   6.860   2.219   7.989 -2.1547  0.5717  0.4577
24381SOL    HW274585   6.774   2.100   7.951 -1.3446  0.2253 -0.3203
24382SOL     OW74586   7.126   2.915   9.606 -0.0333  0.0807  0.0828
24382SOL    HW174587   7.131   2.863   9.527 -0.5277  0.7751 -0.4199
24382SOL    HW274588   7.215   2.911   9.644 -0.3832 -2.2183  0.8131
24383SOL     OW74589   7.039   2.045   8.172 -0.0246  0.1128 -0.2954
24383SOL    HW174590   7.123   2.087   8.188  0.3405 -0.4641 -0.6408
24383SOL    HW274591   7.007   2.021   8.259  0.4179 -0.1197 -0.1920
24384SOL     OW74592   0.001   1.651   9.582 -0.3374  0.4401 -0.0415
24384SOL    HW174593  -0.050   1.609   9.651  0.1406  0.5016  0.3553
24384SOL    HW274594   0.063   1.584   9.553  0.4073  0.8539  0.5748
24385SOL     OW74595   1.242   1.890   7.775 -0.3878 -0.3209 -0.3493
24385SOL    HW174596   1.158   1.846   7.762  0.2554 -1.5566 -0.4772
24385SOL    HW274597   1.299   1.853   7.708  0.7419 -0.8295  0.8481
24386SOL     OW74598   7.341   3.264  10.020  0.4486 -0.7396  0.0836
24386SOL    HW174599   7.300   3.218   9.948  1.4827 -0.7256 -0.5264
24386SOL    HW274600   7.337   3.357   9.995 -0.2886 -0.6159  0.6198
24387SOL     OW74601   7.841   0.919   8.664 -0.5449 -0.0423 -0.2686
24387SOL    HW174602   7.767   0.979   8.668 -0.0785  0.4772  2.6411
24387SOL    HW274603   7.811   0.840   8.709  0.0258 -0.6413 -0.9075
24388SOL     OW74604   0.164   3.579   8.892 -0.7174 -0.1379 -0.1130
24388SOL    HW174605   0.177   3.492   8.854  0.5240 -0.1350  0.2541
24388SOL    HW274606   0.091   3.616   8.842 -1.3327 -1.4178 -0.2011
24389SOL     OW74607   0.968   1.893   7.922 -0.3731  0.0405 -0.0096
24389SOL    HW174608   0.900   1.959   7.932 -1.9417 -1.1091 -2.3088
24389SOL    HW274609   0.976   1.853   8.009 -3.5926 -0.6341  0.0826
24390SOL     OW74610   1.714   1.958   7.866 -0.1814  0.3925 -0.7168
24390SOL    HW174611   1.645   1.908   7.910  0.4852  0.7229  0.7838
24390SOL    HW274612   1.670   2.000   7.792 -2.2234  2.4727  1.4949
24391SOL     OW74613   6.815   2.934   7.486 -0.0797  0.0498  0.8291
24391SOL    HW174614   6.804   2.993   7.560 -0.6078 -1.1768  1.7569
24391SOL    HW274615   6.780   2.984   7.411  1.4756  1.7266  1.1432
24392SOL     OW74616   1.514   4.468   8.221  0.1572  0.1391 -0.5162
24392SOL    HW174617   1.424   4.476   8.191 -0.2154  0.8749  0.7063
24392SOL    HW274618   1.565   4.454   8.142 -0.8310  1.4223 -1.4236
24393SOL     OW74619   0.662   1.220   8.651  0.2255 -0.8834  0.0088
24393SOL    HW174620   0.580   1.233   8.604  0.8555 -1.4465 -1.2908
24393SOL    HW274621   0.647   1.260   8.737 -0.7297  0.7807 -0.8820
24394SOL     OW74622   6.417   3.014   8.992  0.2688  0.2434 -0.2109
24394SOL    HW174623   6.344   3.029   8.932  0.1246  0.9124  0.1219
24394SOL    HW274624   6.409   2.921   9.016 -1.9385  0.8221  1.6755
24395SOL     OW74625   7.481   3.324   9.682 -0.0861  0.5714 -0.5237
24395SOL    HW174626   7.576   3.316   9.679  0.1856  0.9559  2.9708
24395SOL    HW274627   7.466   3.415   9.708 -1.2879 -0.0039  0.9237
24396SOL     OW74628   1.204   2.158   6.870  0.6156  0.5078 -0.7564
24396SOL    HW174629   1.151   2.165   6.791 -0.2047  3.1249 -0.0860
24396SOL    HW274630   1.147   2.117   6.934 -0.0414  1.7476 -0.5227
24397SOL     OW74631   0.806   2.244   8.707 -0.4462 -0.4879 -0.4115
24397SOL    HW174632   0.781   2.165   8.754  0.7435 -1.6576 -1.6524
24397SOL    HW274633   0.795   2.315   8.771  3.4528 -2.2353  2.6490
24398SOL     OW74634   0.457   3.712  11.129  0.3393 -0.3460 -0.7507
24398SOL    HW174635   0.512   3.747  11.199 -0.3525 -0.0300 -0.3579
24398SOL    HW274636   0.398   3.784  11.107 -1.1615 -1.2734  0.1105
24399SOL     OW74637   7.882   1.740  11.173 -0.0659 -0.1210 -0.1238
24399SOL    HW174638   7.804   1.723  11.119  0.8522 -0.1426 -1.4951
24399SOL    HW274639   7.941   1.789  11.115  1.3789 -1.0367  0.5291
24400SOL     OW74640   6.960   3.750   9.857 -0.1417 -0.2362 -0.3608
24400SOL    HW174641   6.949   3.791   9.771  1.1958 -0.7886 -0.8272
24400SOL    HW274642   7.045   3.706   9.851  0.2235  0.1665  1.4241
24401SOL     OW74643   7.811   2.165   9.552 -0.1256 -0.0065  0.4883
24401SOL    HW174644   7.744   2.113   9.597 -2.5153  1.4658 -1.1556
24401SOL    HW274645   7.894   2.121   9.573 -1.5014 -1.5628  3.0989
24402SOL     OW74646   6.258   3.529   8.861  0.5083  0.8257  0.0782
24402SOL    HW174647   6.194   3.598   8.839  0.0739  0.5710  0.5157
24402SOL    HW274648   6.270   3.481   8.779  1.1171  1.6506 -0.3409
24403SOL     OW74649   6.429   4.375  10.124  0.1660  0.0168  0.3364
24403SOL    HW174650   6.440   4.303  10.186 -0.2558  1.1239  1.7519
24403SOL    HW274651   6.380   4.337  10.051  1.0270 -1.4171  0.4757
24404SOL     OW74652   1.437   3.397  10.081 -0.3284 -0.0063  0.1487
24404SOL    HW174653   1.437   3.472  10.139  0.4375 -0.7585  1.1571
24404SOL    HW274654   1.523   3.399  10.038  0.4323 -1.2641  1.5140
24405SOL     OW74655   7.697   3.437   9.396  0.4571  0.4896  0.0808
24405SOL    HW174656   7.684   3.525   9.431  0.8838  0.0919  1.2853
24405SOL    HW274657   7.682   3.379   9.471 -1.1245 -0.5577 -0.9883
24406SOL     OW74658   7.469   2.112  10.632 -0.4894 -0.5668  0.1196
24406SOL    HW174659   7.501   2.097  10.722 -2.4461 -2.4803  0.5852
24406SOL    HW274660   7.512   2.043  10.580 -2.0473 -1.7569  0.3356
24407SOL     OW74661   7.769   3.200  11.152 -0.1268 -0.0425  0.0720
24407SOL    HW174662   7.854   3.159  11.168 -0.0069  0.2287  0.1268
24407SOL    HW274663   7.777   3.289  11.186 -0.0364  0.3841 -1.0095
24408SOL     OW74664   1.329   0.445  10.770  0.0208 -0.3426 -0.2750
24408SOL    HW174665   1.363   0.391  10.700  1.3556 -0.6232  0.5508
24408SOL    HW274666   1.407   0.481  10.813 -0.7023 -0.9674  1.6745
24409SOL     OW74667   6.182   3.396  10.904  0.2231 -0.0700  0.2820
24409SOL    HW174668   6.156   3.388  10.996  0.1332  0.6449  0.3296
24409SOL    HW274669   6.184   3.491  10.888  0.4189 -0.1816 -0.4015
24410SOL     OW74670   7.153   4.554   9.819  0.1520  0.0845 -0.3279
24410SOL    HW174671   7.183   4.626   9.764  0.6486  0.7260  0.7394
24410SOL    HW274672   7.206   4.562   9.899 -0.8991 -0.5050  0.4449
24411SOL     OW74673   6.801   3.990  11.879 -0.2548  0.1166 -0.1036
24411SOL    HW174674   6.850   4.072  11.873 -1.9976  1.1738 -0.5637
24411SOL    HW274675   6.835   3.948  11.958  2.1511  0.2269 -0.9826
24412SOL     OW74676   7.940   2.804  10.091 -0.2869 -0.2176 -0.1082
24412SOL    HW174677   7.868   2.849  10.134  0.3543  0.5244  0.2205
24412SOL    HW274678   7.898   2.737  10.038 -1.3042  0.9271 -0.8215
24413SOL     OW74679   0.758   2.902   9.684 -0.0531 -0.8454  0.0316
24413SOL    HW174680   0.772   2.914   9.590  0.4820 -0.5114  0.1501
24413SOL    HW274681   0.664   2.916   9.697 -0.2335 -1.4936 -0.5393
24414SOL     OW74682   7.842   4.453   9.792 -0.2108  0.0026 -0.4137
24414SOL    HW174683   7.792   4.398   9.731 -0.7621  0.4205 -0.3391
24414SOL    HW274684   7.910   4.395   9.826 -2.7152 -1.6463  2.1772
24415SOL     OW74685   1.051   1.881  11.558 -0.1899  0.1283  0.1183
24415SOL    HW174686   1.053   1.788  11.535  0.2131  0.0996  0.2640
24415SOL    HW274687   0.987   1.919  11.497  0.8360  0.0472 -1.0531
24416SOL     OW74688   5.702   1.515  11.999  0.1145  0.5330 -0.0153
24416SOL    HW174689   5.611   1.487  11.985  0.0444  1.2149 -0.9655
24416SOL    HW274690   5.735   1.535  11.912  1.0071  0.8286  0.3839
24417SOL     OW74691   7.693   2.565  10.244 -0.3289  0.1786 -0.2553
24417SOL    HW174692   7.771   2.536  10.291 -0.2415 -0.0997 -0.5667
24417SOL    HW274693   7.641   2.612  10.309 -1.0756 -1.7255  0.6103
24418SOL     OW74694   7.177   4.315   9.706  0.0306  0.3143 -0.2554
24418SOL    HW174695   7.194   4.273   9.790  3.2807  1.0745 -0.4184
24418SOL    HW274696   7.140   4.400   9.729  0.8612  0.5044  0.4058
24419SOL     OW74697   7.524   3.994  10.698  0.0510 -0.0001 -0.2540
24419SOL    HW174698   7.446   3.961  10.653  0.4875 -0.3025 -0.7992
24419SOL    HW274699   7.591   3.999  10.630  0.9899 -1.3471  0.5168
24420SOL     OW74700   7.917   2.577   0.219 -0.7629  0.5096  0.1618
24420SOL    HW174701   7.938   2.486   0.238  0.1907  0.2163 -2.0008
24420SOL    HW274702   7.833   2.592   0.263 -1.0443 -1.4759  0.3877
24421SOL     OW74703   1.210   4.133   0.690  0.4553  0.0630  0.0028
24421SOL    HW174704   1.221   4.058   0.632  0.8759 -0.2231  0.4478
24421SOL    HW274705   1.209   4.209   0.631 -1.0059 -0.3530 -0.5496
24422SOL     OW74706   0.160   3.183   9.784  0.6543 -0.4536 -0.3659
24422SOL    HW174707   0.245   3.151   9.814  1.0949  0.3367 -0.7413
24422SOL    HW274708   0.102   3.108   9.793  1.2359 -0.8144  0.5252
24423SOL     OW74709   7.305   4.771  11.547 -0.8168  0.0627 -0.1615
24423SOL    HW174710   7.354   4.807  11.621 -0.1387 -0.3883 -0.3820
24423SOL    HW274711   7.238   4.716  11.587 -0.2145 -0.4799  0.1253
24424SOL     OW74712   1.028   2.262  12.496  0.1249  0.2565  0.1308
24424SOL    HW174713   0.957   2.214  12.538  0.3691 -0.6546 -0.4581
24424SOL    HW274714   1.083   2.194  12.457 -0.0318  1.0480 -1.5600
24425SOL     OW74715   7.113   4.979  10.267 -0.3491  0.0561 -0.2385
24425SOL    HW174716   7.117   4.964  10.361 -2.1679  1.1266  0.0512
24425SOL    HW274717   7.068   4.903  10.231 -0.6024  0.1401 -0.0989
24426SOL     OW74718   7.273   1.300  10.486 -0.0084 -0.2574  0.0895
24426SOL    HW174719   7.240   1.356  10.556  0.3229 -1.2645  1.0769
24426SOL    HW274720   7.312   1.360  10.423 -1.7801  0.8151 -0.0769
24427SOL     OW74721   0.356   2.531   7.631  0.1262  0.7285  0.3047
24427SOL    HW174722   0.423   2.561   7.570  0.0762 -0.5377 -0.4052
24427SOL    HW274723   0.281   2.588   7.614 -0.3202 -0.3975 -1.7371
24428SOL     OW74724   7.272   2.501   9.244 -0.3818  0.0828 -0.0856
24428SOL    HW174725   7.271   2.405   9.249 -1.0913  0.0452 -0.7892
24428SOL    HW274726   7.247   2.521   9.154 -3.0531  0.9683  0.7530
24429SOL     OW74727   0.629   1.214   9.231  0.0909 -0.6523 -0.6588
24429SOL    HW174728   0.707   1.182   9.185  0.6747 -1.0353  0.5408
24429SOL    HW274729   0.599   1.139   9.283 -0.7730 -0.3503 -0.6990
24430SOL     OW74730   7.667   3.449   9.871 -0.2860  0.0815  0.7347
24430SOL    HW174731   7.698   3.360   9.888 -0.6094 -0.1357  0.2162
24430SOL    HW274732   7.639   3.482   9.957  0.9340  0.1212  1.1343
24431SOL     OW74733   0.232   0.790   0.435  0.2627 -0.0701  0.3718
24431SOL    HW174734   0.238   0.861   0.499  0.5702 -0.5197  0.8567
24431SOL    HW274735   0.152   0.809   0.386 -0.6387 -0.3342  1.6788
24432SOL     OW74736   0.829   2.250  10.997 -0.3416  0.5405  0.5299
24432SOL    HW174737   0.753   2.203  10.964  0.0025 -0.5385  1.2476
24432SOL    HW274738   0.807   2.343  10.984  0.0363  0.2344 -3.2660
24433SOL     OW74739   1.758   2.924  11.492  0.4795 -0.5390 -0.2678
24433SOL    HW174740   1.818   2.878  11.552  0.2225  0.5810  0.9015
24433SOL    HW274741   1.672   2.890  11.514  0.4464 -0.5484 -0.4123
24434SOL     OW74742   7.717   5.079  10.807 -0.4479 -0.4721  0.1160
24434SOL    HW174743   7.741   5.070  10.899 -1.2410 -1.7068  0.2113
24434SOL    HW274744   7.629   5.042  10.801 -1.1269  1.1634 -0.8234
24435SOL     OW74745   0.511   2.602  11.290  0.0747 -0.2465 -0.0702
24435SOL    HW174746   0.565   2.634  11.363 -2.0530  0.2974  1.3673
24435SOL    HW274747   0.450   2.673  11.273  0.4216 -0.4429 -2.3491
24436SOL     OW74748   6.924   1.830  10.362  0.4328 -0.3787 -0.2447
24436SOL    HW174749   6.955   1.861  10.447 -0.8586 -1.0546  0.5102
24436SOL    HW274750   6.864   1.898  10.332  1.0356 -0.0468 -0.7332
24437SOL     OW74751   7.554   2.708  10.456 -0.1229 -0.1338 -0.0450
24437SOL    HW174752   7.597   2.765  10.519 -2.1163  0.9835  0.3958
24437SOL    HW274753   7.467   2.692  10.494 -0.8269 -0.6592 -1.7767
24438SOL     OW74754   0.965   2.030  11.858  0.0383  0.2031 -0.2965
24438SOL    HW174755   0.993   1.960  11.799  2.1073 -0.2205  1.0906
24438SOL    HW274756   1.030   2.030  11.928 -1.3400  1.8590  1.0715
24439SOL     OW74757   7.455   3.800  11.334 -0.3641  0.0692  0.8503
24439SOL    HW174758   7.443   3.883  11.380  1.0527 -0.3004  1.9613
24439SOL    HW274759   7.521   3.818  11.267 -1.2458  0.2101 -0.0049
24440SOL     OW74760   0.279   4.376  10.640 -0.0532  0.2262 -0.3487
24440SOL    HW174761   0.298   4.404  10.551 -0.3421 -0.9823 -0.8091
24440SOL    HW274762   0.251   4.285  10.631  0.2249 -0.0116  1.0114
24441SOL     OW74763   7.499   2.420   9.485 -0.2033  0.7615 -0.4716
24441SOL    HW174764   7.437   2.370   9.433 -1.0693 -0.8223  1.8911
24441SOL    HW274765   7.514   2.366   9.563 -0.0713  3.5457  1.5867
24442SOL     OW74766   0.425   1.182  10.999 -0.0704  0.1405  0.1547
24442SOL    HW174767   0.366   1.232  11.056 -0.7199  0.0814 -0.4560
24442SOL    HW274768   0.506   1.175  11.050 -0.2563  1.0632  0.6073
24443SOL     OW74769   7.363   0.875  10.819 -0.2362  0.1255  0.1573
24443SOL    HW174770   7.392   0.853  10.908 -3.6067 -1.4432  1.0024
24443SOL    HW274771   7.377   0.796  10.769 -1.2518 -0.0352  0.1152
24444SOL     OW74772   7.348   3.395   0.049  0.2512  0.2098  0.4609
24444SOL    HW174773   7.368   3.454  -0.024 -0.6171 -0.2954 -0.2062
24444SOL    HW274774   7.276   3.341   0.017  1.0762 -1.2689  1.0415
24445SOL     OW74775   6.909   2.562   9.920  0.1220  0.3131  0.0005
24445SOL    HW174776   6.834   2.568   9.979 -1.4530 -0.2242 -1.8356
24445SOL    HW274777   6.881   2.607   9.841  1.4878 -0.4579 -0.9713
24446SOL     OW74778   7.997   0.600   9.379 -0.1168 -0.3305 -0.1845
24446SOL    HW174779   8.089   0.586   9.354 -0.2288  1.3635 -1.8238
24446SOL    HW274780   8.000   0.673   9.442 -0.4538  2.1550 -2.8169
24447SOL     OW74781   0.104   2.602   9.907 -0.7883  0.5798 -0.4976
24447SOL    HW174782   0.072   2.640   9.826 -2.4635  0.0731 -0.1207
24447SOL    HW274783   0.027   2.559   9.945  0.7383 -2.3180 -0.4246
24448SOL     OW74784   7.173   3.784   8.861 -0.2074  0.5492  0.1513
24448SOL    HW174785   7.119   3.737   8.797 -0.1172  1.7041 -0.7993
24448SOL    HW274786   7.173   3.727   8.938  0.6476 -1.4697 -1.2375
24449SOL     OW74787   7.112   1.621   9.284 -0.3150  0.1650 -0.2779
24449SOL    HW174788   7.173   1.559   9.245  0.1255  0.4996 -0.1369
24449SOL    HW274789   7.025   1.585   9.266 -0.1023  0.0263 -1.0765
24450SOL     OW74790   0.412   2.452  11.580 -0.3712  0.3928  0.2954
24450SOL    HW174791   0.401   2.463  11.485  1.0205 -0.9065 -0.0504
24450SOL    HW274792   0.344   2.389  11.605  0.7788 -1.1747 -0.3286
24451SOL     OW74793   0.732   1.224  10.261 -0.6831  0.2564  0.4336
24451SOL    HW174794   0.764   1.302  10.306 -0.4428 -0.1249  0.9376
24451SOL    HW274795   0.808   1.166  10.257 -0.4580  0.6195 -1.2605
24452SOL     OW74796   7.899   5.457  10.067 -0.2321  0.1992 -0.1064
24452SOL    HW174797   7.923   5.490   9.980 -1.6683 -0.0758 -0.6340
24452SOL    HW274798   7.824   5.510  10.093 -0.2324 -0.1737  0.6786
24453SOL     OW74799   0.628   3.805  10.195  0.6252 -0.1447  0.2859
24453SOL    HW174800   0.608   3.859  10.119 -1.0546 -1.1910 -0.0612
24453SOL    HW274801   0.582   3.848  10.267 -0.8764 -1.1724 -0.0285
24454SOL     OW74802   0.614   2.661  11.838 -0.4746 -0.9875 -0.0699
24454SOL    HW174803   0.625   2.747  11.798  0.0918 -0.7681  0.5421
24454SOL    HW274804   0.681   2.606  11.796 -0.1151 -0.8480  0.3170
24455SOL     OW74805   6.662   4.941  11.621 -0.0995  0.7342  0.5889
24455SOL    HW174806   6.607   4.878  11.575 -0.9098  0.3962  1.9782
24455SOL    HW274807   6.749   4.931  11.581 -1.0835  1.5746 -1.9253
24456SOL     OW74808   7.532   1.166   9.736  0.2216 -0.0026 -0.6264
24456SOL    HW174809   7.551   1.144   9.827  2.4644  0.3639 -0.9336
24456SOL    HW274810   7.490   1.252   9.740  0.4209  0.0680  0.0583
24457SOL     OW74811   7.298   4.824  10.841  0.5038 -0.4549 -0.6928
24457SOL    HW174812   7.293   4.803  10.748 -0.6528 -3.8861 -0.0170
24457SOL    HW274813   7.207   4.839  10.867  0.5910 -1.3687  0.2004
24458SOL     OW74814   0.322   3.303  11.268 -0.3410  0.0182  0.0395
24458SOL    HW174815   0.386   3.355  11.316 -1.9088  0.4572  1.7103
24458SOL    HW274816   0.313   3.348  11.184  2.6636 -0.9335 -0.9543
24459SOL     OW74817   1.017   3.171   7.816  0.5537 -0.1985 -0.0673
24459SOL    HW174818   1.043   3.141   7.729  0.5197 -3.4237  0.9020
24459SOL    HW274819   0.963   3.248   7.800 -1.3669 -1.9510 -3.1344
24460SOL     OW74820   7.991   2.972   9.826 -0.6618  0.4162 -0.2686
24460SOL    HW174821   7.999   2.936   9.915 -2.2561 -1.0330 -0.6455
24460SOL    HW274822   8.006   2.897   9.769  0.2112  1.3062 -1.2466
24461SOL     OW74823   7.299   1.979   8.369 -0.0359 -0.2974  0.1374
24461SOL    HW174824   7.226   1.917   8.365  0.9502 -1.5482  0.7564
24461SOL    HW274825   7.286   2.025   8.452  0.8356 -1.8040  1.1521
24462SOL     OW74826   0.263   1.811  10.239 -0.5604 -0.2860  0.2413
24462SOL    HW174827   0.220   1.753  10.175 -1.8863  1.1313 -0.2000
24462SOL    HW274828   0.355   1.786  10.234 -0.3212  0.6766 -3.2926
24463SOL     OW74829   0.760   3.168  11.523 -0.2422  0.0563 -0.6744
24463SOL    HW174830   0.852   3.162  11.496  0.1027  1.0160  0.2568
24463SOL    HW274831   0.760   3.134  11.612 -1.1455 -1.7911 -1.3283
24464SOL     OW74832   5.519   4.034  10.585  0.2069  0.0127 -0.1797
24464SOL    HW174833   5.585   4.059  10.650  0.5265  0.5858 -0.7174
24464SOL    HW274834   5.527   4.099  10.516 -1.5231  0.6162  0.1347
24465SOL     OW74835   7.844   2.252   8.154 -0.1029  0.3068 -0.2414
24465SOL    HW174836   7.836   2.319   8.222  0.3458  1.3521 -1.1821
24465SOL    HW274837   7.939   2.245   8.139  0.0323 -2.0724  1.2857
24466SOL     OW74838   7.959   2.920  10.432  0.5612  0.3043  0.2619
24466SOL    HW174839   7.992   2.834  10.455 -2.9507 -1.1598  0.5497
24466SOL    HW274840   7.987   2.977  10.503  0.5503 -1.2923  1.5916
24467SOL     OW74841   7.106   0.269   0.137  0.0470  0.0139  0.0922
24467SOL    HW174842   7.068   0.182   0.123 -0.0262  0.1163 -0.3678
24467SOL    HW274843   7.196   0.262   0.105  0.8356 -0.5650  2.2822
24468SOL     OW74844   7.882   1.995  10.028  0.5227  0.4845 -0.0324
24468SOL    HW174845   7.803   1.942  10.015  1.1021 -0.7248  1.1394
24468SOL    HW274846   7.878   2.061   9.958 -0.6325 -0.6220 -1.0725
24469SOL     OW74847   7.831   3.276  11.593 -0.3248  0.0099  0.3984
24469SOL    HW174848   7.893   3.236  11.533 -0.3557  0.1629  0.2634
24469SOL    HW274849   7.885   3.321  11.658 -0.2967  0.3466  0.1421
24470SOL     OW74850   7.947   2.004  11.349 -0.0738  0.0247 -0.0348
24470SOL    HW174851   7.897   2.059  11.408  2.3926  1.2263  1.0948
24470SOL    HW274852   7.962   2.058  11.272  0.5249  0.1648  0.1720
24471SOL     OW74853   7.669   1.688  12.407 -0.0275  0.2681  0.0074
24471SOL    HW174854   7.719   1.607  12.418 -1.2469 -0.5013  0.1042
24471SOL    HW274855   7.614   1.672  12.331 -0.1760  1.0626 -0.0549
24472SOL     OW74856   6.921   2.904   0.917  0.3191  0.3247 -0.7915
24472SOL    HW174857   6.838   2.951   0.912  0.6562  0.9010 -1.1126
24472SOL    HW274858   6.957   2.909   0.828  1.9785  2.4812 -0.1084
24473SOL     OW74859   7.708   3.681  10.387 -0.0787  0.0944 -0.2598
24473SOL    HW174860   7.620   3.683  10.424  0.3852  0.6164  0.8625
24473SOL    HW274861   7.696   3.643  10.300 -1.0466 -2.5632  0.9074
24474SOL     OW74862   1.148   3.377   0.264 -0.4201 -0.1937  0.1244
24474SOL    HW174863   1.202   3.379   0.185 -1.4916  0.5235 -0.6218
24474SOL    HW274864   1.100   3.295   0.259  1.0869 -1.2068  1.1768
24475SOL     OW74865   0.530   3.384  10.228 -0.6193 -0.0824  0.1629
24475SOL    HW174866   0.497   3.412  10.313 -0.0362 -2.6811  1.3561
24475SOL    HW274867   0.451   3.371  10.175 -1.1270 -0.1853  0.9206
24476SOL     OW74868   6.223   4.244  10.668 -0.2296  0.0092 -0.5677
24476SOL    HW174869   6.318   4.235  10.667 -0.3608 -2.1493 -2.6209
24476SOL    HW274870   6.202   4.299  10.593 -0.6652 -0.7504 -1.0164
24477SOL     OW74871   6.729   3.607  10.677  0.5281  0.1412  0.4394
24477SOL    HW174872   6.762   3.518  10.669  0.8047  0.1072  1.7251
24477SOL    HW274873   6.651   3.599  10.732  0.9024  0.7479  1.0878
24478SOL     OW74874   6.470   2.041  11.361  0.0545 -0.0983  0.0169
24478SOL    HW174875   6.534   2.007  11.424 -1.2847 -0.7035  1.0901
24478SOL    HW274876   6.465   2.134  11.379 -1.2675 -0.4641  1.7384
24479SOL     OW74877   7.884   2.886   0.233  0.2060 -0.5335 -0.7686
24479SOL    HW174878   7.844   2.971   0.216  2.5613  0.3847 -2.2544
24479SOL    HW274879   7.855   2.863   0.322 -0.3063  1.9530 -0.2184
24480SOL     OW74880   7.287   2.390  12.399 -0.1382  0.2554  0.4644
24480SOL    HW174881   7.224   2.364  12.467 -0.1722  1.0083  0.7347
24480SOL    HW274882   7.313   2.308  12.357 -2.1014  0.0048 -0.3725
24481SOL     OW74883   0.215   3.764  10.457 -0.4640 -0.2791 -0.0604
24481SOL    HW174884   0.156   3.793  10.527  0.7013 -0.1933  0.9079
24481SOL    HW274885   0.234   3.673  10.478 -0.0243 -0.2220 -0.2113
24482SOL     OW74886   7.156   3.100  11.337  0.3732 -0.6754  0.1365
24482SOL    HW174887   7.156   3.186  11.295  0.0243 -1.6966 -2.1089
24482SOL    HW274888   7.233   3.056  11.302  0.1607 -1.5236  0.7048
24483SOL     OW74889   7.671   1.792  11.013  0.3048 -0.3325 -0.2294
24483SOL    HW174890   7.680   1.872  10.961 -1.2071 -0.3477 -0.5710
24483SOL    HW274891   7.644   1.822  11.099  1.0394 -0.4163  0.0398
24484SOL     OW74892   7.478   2.987  10.828  0.2336 -0.1687 -0.5424
24484SOL    HW174893   7.452   3.043  10.755 -0.5505 -0.1233 -0.2384
24484SOL    HW274894   7.400   2.934  10.846 -0.4162  1.3724  1.7066
24485SOL     OW74895   0.182   1.796  12.484 -0.0448 -0.2005  0.1663
24485SOL    HW174896   0.130   1.754  12.415  1.1735  0.2173 -1.0387
24485SOL    HW274897   0.254   1.735  12.501  0.4536  0.3451  0.0521
24486SOL     OW74898   6.954   1.325  10.766 -0.2377  0.3053  0.1374
24486SOL    HW174899   6.879   1.382  10.752 -1.3675 -1.0731  0.2940
24486SOL    HW274900   6.990   1.312  10.678  0.2010  1.4469  0.1357
24487SOL     OW74901   7.287   0.545   0.307  0.4936  0.2222 -0.3000
24487SOL    HW174902   7.321   0.613   0.366  0.1884  0.0669  0.0602
24487SOL    HW274903   7.217   0.588   0.258  0.1562  0.1186  0.0794
24488SOL     OW74904   7.038   1.421   0.504 -0.0891 -0.2734  0.3995
24488SOL    HW174905   6.995   1.346   0.464 -2.2785  1.9147 -1.6085
24488SOL    HW274906   7.103   1.449   0.440  1.2530 -0.8320  1.4632
24489SOL     OW74907   6.357   2.120  12.314  0.3610  0.8688  0.0435
24489SOL    HW174908   6.302   2.186  12.269 -0.9632  0.5832  1.1642
24489SOL    HW274909   6.319   2.114  12.402  1.9174  0.2736  0.6984
24490SOL     OW74910   0.177   2.630  11.951 -0.2306 -0.1931  0.1179
24490SOL    HW174911   0.204   2.618  11.860 -0.7368  0.5802 -0.1512
24490SOL    HW274912   0.144   2.720  11.954 -0.1422 -0.1823  1.0896
24491SOL     OW74913   7.519   2.448  11.288 -0.5298  0.0264 -0.1065
24491SOL    HW174914   7.434   2.408  11.309  0.1077 -0.2600  2.2027
24491SOL    HW274915   7.521   2.528  11.340  2.2348 -2.0215  3.3964
24492SOL     OW74916   0.973   2.668   0.684 -0.4738 -0.1003  0.4638
24492SOL    HW174917   1.038   2.663   0.614 -0.7732  0.2752  0.1553
24492SOL    HW274918   0.926   2.584   0.679  0.5261 -0.7322  1.2336
24493SOL     OW74919   0.115   1.821   1.414 -0.2847 -0.0071  0.1328
24493SOL    HW174920   0.033   1.807   1.366 -0.5570  2.2046 -0.1474
24493SOL    HW274921   0.090   1.873   1.490  0.7582 -0.0060  0.4877
24494SOL     OW74922   0.369   3.031   0.292 -0.4324 -0.4781  0.5142
24494SOL    HW174923   0.374   2.966   0.222 -1.7345  0.7917 -0.8317
24494SOL    HW274924   0.452   3.079   0.287 -0.8107  0.1026 -0.7155
24495SOL     OW74925   6.806   4.600   0.251  0.0039  0.2065  0.2017
24495SOL    HW174926   6.859   4.548   0.312  1.2227  0.0781 -0.9222
24495SOL    HW274927   6.723   4.612   0.296 -0.8323 -3.7700  0.0606
24496SOL     OW74928   2.271   2.549  11.650 -0.5454  0.2347  0.0906
24496SOL    HW174929   2.292   2.559  11.557  0.8733 -0.0527  0.3553
24496SOL    HW274930   2.343   2.591  11.696  0.0863 -1.7736  1.0737
24497SOL     OW74931   6.182   1.771  11.714 -0.0520 -0.4343 -0.1495
24497SOL    HW174932   6.171   1.712  11.789  3.1835  0.6970  1.4178
24497SOL    HW274933   6.127   1.846  11.735 -0.8756 -1.0497 -0.0470
24498SOL     OW74934   7.472   3.100  11.993 -0.4050  0.3975 -0.1350
24498SOL    HW174935   7.553   3.148  11.978  0.8134 -1.5640 -0.1985
24498SOL    HW274936   7.405   3.150  11.947  0.9910  1.3846 -1.1787
24499SOL     OW74937   0.586   7.838  11.442  0.1470  0.0727  0.3393
24499SOL    HW174938   0.643   7.845  11.519  1.2962  1.6960 -0.5889
24499SOL    HW274939   0.626   7.897  11.378 -0.9222 -1.0354 -1.4180
24500SOL     OW74940   7.356   2.872   0.797  0.2387 -0.0482  0.0281
24500SOL    HW174941   7.390   2.853   0.709 -1.4768 -0.7513 -0.5174
24500SOL    HW274942   7.373   2.792   0.847 -1.1380 -0.6692 -0.4401
24501SOL     OW74943   0.938   2.780  12.088  0.2411  0.9070 -0.0086
24501SOL    HW174944   0.944   2.830  12.170 -0.6385 -0.8996  1.2246
24501SOL    HW274945   1.024   2.791  12.048  0.8887  1.4115  1.4214
24502SOL     OW74946   0.051   2.639  11.285 -0.1627  0.2847  0.5629
24502SOL    HW174947  -0.032   2.619  11.241 -1.0393  2.9291  0.8252
24502SOL    HW274948   0.025   2.668  11.373  1.0763  0.7715  0.7903
24503SOL     OW74949   6.024   4.249  12.357 -0.3339 -0.7040 -0.5142
24503SOL    HW174950   6.023   4.308  12.433 -2.4912  0.3788 -1.3128
24503SOL    HW274951   5.932   4.228  12.342  0.1043 -1.3956 -2.4608
24504SOL     OW74952   7.966   2.080   1.380  0.0178 -0.2087  0.2252
24504SOL    HW174953   7.923   2.157   1.342  1.2789  0.3139 -0.1918
24504SOL    HW274954   7.918   2.064   1.461 -1.8364 -0.4871 -0.8647
24505SOL     OW74955   7.932   2.453  10.844 -0.6489  0.5680 -0.0431
24505SOL    HW174956   7.856   2.399  10.868  0.1046 -0.6325 -0.2690
24505SOL    HW274957   7.894   2.533  10.808 -1.8074  1.0644  2.1146
24506SOL     OW74958   0.090   2.197  11.870  0.1982 -0.0183  0.3453
24506SOL    HW174959   0.120   2.268  11.926  1.4764 -0.0780 -0.2241
24506SOL    HW274960   0.023   2.152  11.922  0.1817  0.9041  1.1526
24507SOL     OW74961   7.365   3.302  11.687 -0.1070 -0.0904  0.0027
24507SOL    HW174962   7.369   3.394  11.714 -0.1770  0.3190 -1.2958
24507SOL    HW274963   7.453   3.284  11.652  0.1555 -0.7686  0.9685
24508SOL     OW74964   7.289   1.615  12.398 -0.1414  0.3979  0.4919
24508SOL    HW174965   7.366   1.619  12.343 -0.5977 -0.3420 -0.2217
24508SOL    HW274966   7.216   1.609  12.337 -0.5988 -1.5065  1.1573
24509SOL     OW74967   7.755   4.718  11.860  0.2343 -0.2431 -0.7967
24509SOL    HW174968   7.799   4.802  11.874  1.1132 -0.9819  1.1367
24509SOL    HW274969   7.768   4.669  11.941  0.7955 -2.7319 -2.2622
24510SOL     OW74970   7.664   3.440  10.597 -0.3992  1.0422  0.5760
24510SOL    HW174971   7.733   3.427  10.531  0.6193 -0.3946  1.8575
24510SOL    HW274972   7.588   3.468  10.546  0.2868 -0.1940 -1.2658
24511SOL     OW74973   0.082   3.395  11.481 -0.3648 -0.0763  0.3834
24511SOL    HW174974   0.041   3.468  11.434 -0.6755 -0.4343  0.0925
24511SOL    HW274975   0.175   3.406  11.465 -0.0722  1.9439  2.7184
24512SOL     OW74976   6.838   3.276  11.650  0.0835  0.3628  0.0537
24512SOL    HW174977   6.834   3.365  11.684 -0.1373  0.3771 -0.0074
24512SOL    HW274978   6.932   3.259  11.637  0.0909  0.8143 -0.5389
24513SOL     OW74979   6.139   4.408   0.620  0.3988  0.1160 -0.2153
24513SOL    HW174980   6.162   4.485   0.567  3.5853 -1.3092 -1.1631
24513SOL    HW274981   6.195   4.413   0.697  0.9695 -1.4134 -0.4885
24514SOL     OW74982   7.455   1.641   1.508  0.2362  0.3244 -0.6660
24514SOL    HW174983   7.446   1.623   1.602 -1.2793  0.1079 -0.8331
24514SOL    HW274984   7.433   1.734   1.499 -0.0456  0.2390 -0.8597
24515SOL     OW74985   7.667   3.282  12.051  0.2980  0.0517  0.1661
24515SOL    HW174986   7.700   3.293  12.140 -0.0717  1.1915  0.1810
24515SOL    HW274987   7.674   3.369  12.012 -1.5787  0.0631 -0.2162
24516SOL     OW74988   7.292   1.835   0.474  0.5974  0.0845  0.2608
24516SOL    HW174989   7.320   1.812   0.563 -0.2586  0.6687  0.6894
24516SOL    HW274990   7.199   1.854   0.481  1.0292  2.8996 -0.1810
24517SOL     OW74991   6.857   3.183   0.331 -0.5077  0.0244  0.3679
24517SOL    HW174992   6.866   3.243   0.405 -0.1195 -0.4371  0.7058
24517SOL    HW274993   6.896   3.229   0.257 -1.6597  0.8381  0.2430
24518SOL     OW74994   7.626   4.693   0.748  0.3683 -0.4328  0.2975
24518SOL    HW174995   7.701   4.744   0.720  1.0086 -1.3412  0.2920
24518SOL    HW274996   7.552   4.753   0.745  0.5608 -0.2339 -2.4037
24519SOL     OW74997   7.446   5.438   2.539 -0.0483  0.2129  0.6750
24519SOL    HW174998   7.497   5.382   2.598 -1.8778 -0.1034  2.0546
24519SOL    HW274999   7.492   5.433   2.455  1.3487 -1.1826  1.4717
24520SOL     OW75000   2.830   5.931   0.750  0.2032 -0.4548 -0.2610
24520SOL    HW175001   2.844   5.917   0.656 -1.2598  1.1934 -0.7968
24520SOL    HW275002   2.771   5.861   0.776  0.7753 -1.0393 -0.5179
24521SOL     OW75003   0.412   4.727   1.019  0.3538 -0.2155 -0.6355
24521SOL    HW175004   0.476   4.791   0.988 -0.3550  0.5148 -0.6242
24521SOL    HW275005   0.328   4.758   0.985 -0.3117  0.0708  1.1102
24522SOL     OW75006   0.587   4.124   1.669  0.3358 -0.3327 -0.2722
24522SOL    HW175007   0.527   4.138   1.596  1.0855  1.6786 -0.5475
24522SOL    HW275008   0.670   4.159   1.638  0.7550  0.2296  1.4115
24523SOL     OW75009   7.893   4.870   1.680  0.1090 -0.0041 -0.1144
24523SOL    HW175010   7.964   4.872   1.615  1.1253 -0.4034  0.9570
24523SOL    HW275011   7.839   4.946   1.657  1.0516  0.5027 -0.7708
24524SOL     OW75012   7.503   5.073  11.514 -0.2656  0.2238  0.5639
24524SOL    HW175013   7.466   4.995  11.554  0.2013  0.5555  1.6732
24524SOL    HW275014   7.497   5.057  11.420 -1.9637 -0.3013  0.7335
24525SOL     OW75015   0.573   4.831   0.163  0.1773  0.8823 -0.6037
24525SOL    HW175016   0.654   4.781   0.173  0.6270  1.5340 -0.8772
24525SOL    HW275017   0.519   4.778   0.106 -0.2678 -0.3420  0.8843
24526SOL     OW75018   1.322   4.664   1.370  0.4298 -0.3952 -0.3061
24526SOL    HW175019   1.261   4.591   1.379  1.1359 -1.0376 -0.5645
24526SOL    HW275020   1.281   4.723   1.307  0.3343 -1.0892 -0.9005
24527SOL     OW75021   1.493   4.271   0.615 -0.0856 -0.4365 -0.0006
24527SOL    HW175022   1.419   4.244   0.560  1.0834 -1.1554 -1.2529
24527SOL    HW275023   1.452   4.293   0.699 -1.7117 -0.9337 -0.6127
24528SOL     OW75024   7.306   3.543   2.414 -0.5215 -0.3132 -0.3119
24528SOL    HW175025   7.355   3.481   2.469 -2.8821 -2.1771 -0.1246
24528SOL    HW275026   7.276   3.610   2.475  1.7439  0.9364 -0.4493
24529SOL     OW75027   7.554   2.858  12.038  0.7522 -0.0834 -0.3760
24529SOL    HW175028   7.517   2.943  12.014  1.2814  0.6217  1.1442
24529SOL    HW275029   7.495   2.826  12.107  0.8668 -0.6962 -0.5619
24530SOL     OW75030   0.173   7.308   2.590  0.4031  0.3766 -0.1935
24530SOL    HW175031   0.223   7.389   2.600  0.4950  0.2103  0.7398
24530SOL    HW275032   0.150   7.283   2.679  1.0201 -1.0372 -0.4191
24531SOL     OW75033   7.811   3.900   1.290  0.2526  0.2105 -0.3135
24531SOL    HW175034   7.891   3.950   1.279  1.3643 -1.7589 -1.8871
24531SOL    HW275035   7.823   3.851   1.371  0.9325 -0.4981 -0.8258
24532SOL     OW75036   7.990   6.225   4.121 -0.0994  0.0071  0.4174
24532SOL    HW175037   7.907   6.195   4.160  0.2977 -0.8733  0.6084
24532SOL    HW275038   8.024   6.148   4.075  1.0555  0.0961  1.0847
24533SOL     OW75039   0.338   4.181   1.016  0.6675  0.2922  0.4639
24533SOL    HW175040   0.404   4.112   1.026  1.3135  0.9902  1.0682
24533SOL    HW275041   0.314   4.177   0.923  2.4269  0.7976 -0.0499
24534SOL     OW75042   1.795   4.482   1.049 -0.2909 -0.5608 -0.0340
24534SOL    HW175043   1.736   4.476   1.125 -0.8467  1.7148 -0.2065
24534SOL    HW275044   1.879   4.451   1.082 -0.6099  0.0269  1.4308
24535SOL     OW75045   0.106   2.840   2.076  0.5266 -0.3369 -0.6617
24535SOL    HW175046   0.085   2.797   2.159  2.0197 -0.3448 -0.2696
24535SOL    HW275047   0.174   2.785   2.037  0.5776  0.2420 -1.4168
24536SOL     OW75048   5.981   6.361   1.914  0.1106  0.0717 -0.2287
24536SOL    HW175049   5.932   6.286   1.878  1.5620  0.2301 -2.7688
24536SOL    HW275050   6.065   6.324   1.939 -1.0419 -0.1745  4.0174
24537SOL     OW75051   0.303   3.707   0.501 -0.2741  0.2017 -0.1461
24537SOL    HW175052   0.257   3.753   0.572  0.2769 -0.4837  0.6777
24537SOL    HW275053   0.287   3.761   0.424 -0.8212  1.0177  0.5107
24538SOL     OW75054   0.077   1.874   0.693  0.0041 -0.2715 -0.0038
24538SOL    HW175055   0.143   1.807   0.713  0.3567  0.1989  0.4477
24538SOL    HW275056   0.011   1.829   0.641  1.6681 -0.3133 -2.2284
24539SOL     OW75057   1.214   5.209   1.597  0.1586  0.1977  0.0914
24539SOL    HW175058   1.289   5.257   1.563 -0.0614  0.6190  0.1880
24539SOL    HW275059   1.139   5.266   1.577 -0.1872 -0.4287 -0.4235
24540SOL     OW75060   0.088   4.613   1.587  0.1470 -0.4056 -0.6344
24540SOL    HW175061   0.041   4.635   1.668 -0.1893 -0.5888 -0.7776
24540SOL    HW275062   0.088   4.517   1.585  1.4874 -0.4319 -0.0841
24541SOL     OW75063   7.020   4.603   0.070 -0.0540 -0.1642  0.1254
24541SOL    HW175064   6.949   4.623   0.130  0.2296 -0.4008  0.5465
24541SOL    HW275065   7.074   4.682   0.069  0.6658 -0.6148  1.2216
24542SOL     OW75066   7.601   3.518   0.585 -0.1247 -0.5665  0.5774
24542SOL    HW175067   7.556   3.574   0.521 -0.1498  0.4062  1.4416
24542SOL    HW275068   7.592   3.430   0.548 -2.3929 -0.3611  0.4997
24543SOL     OW75069   0.532   6.740   1.535 -0.1015 -0.3490 -0.6494
24543SOL    HW175070   0.504   6.700   1.617  0.5386 -1.8659 -1.1401
24543SOL    HW275071   0.627   6.727   1.533 -0.1142 -0.3913 -1.6520
24544SOL     OW75072   6.876   5.980  12.226  0.6118  0.1756  0.5158
24544SOL    HW175073   6.831   5.908  12.270 -0.4191  0.1298 -0.5578
24544SOL    HW275074   6.938   6.014  12.291 -0.4566 -0.2442  1.7850
24545SOL     OW75075   7.070   5.078   0.427  0.4189 -0.4762  0.3254
24545SOL    HW175076   7.120   5.063   0.507 -0.2064 -0.4068  0.7394
24545SOL    HW275077   7.016   5.155   0.447  1.2297  0.3573 -0.6356
24546SOL     OW75078   7.192   4.297   0.561  0.1993 -0.2927 -0.5124
24546SOL    HW175079   7.257   4.283   0.493  0.0732 -0.3304 -0.6258
24546SOL    HW275080   7.137   4.218   0.558  1.4520 -1.2861  1.0366
24547SOL     OW75081   6.018   3.687   1.304  0.2049 -0.0162 -0.2747
24547SOL    HW175082   5.966   3.696   1.384 -0.7946  0.5918 -0.9739
24547SOL    HW275083   6.013   3.595   1.281 -0.6528  0.0597 -0.3933
24548SOL     OW75084   7.998   5.525   2.953 -0.2640 -0.6653 -0.0924
24548SOL    HW175085   7.968   5.607   2.992 -0.0237 -0.9379  0.6809
24548SOL    HW275086   7.939   5.458   2.989 -0.1349 -0.9028 -0.3130
24549SOL     OW75087   7.260   5.337   0.488  0.5627  0.2490  0.3473
24549SOL    HW175088   7.198   5.293   0.431 -1.0835  0.4358  1.9166
24549SOL    HW275089   7.338   5.349   0.433 -0.9155  0.4621 -1.8336
24550SOL     OW75090   1.432   4.713   0.672  0.0069  0.2722  0.8598
24550SOL    HW175091   1.493   4.758   0.730  0.6297 -1.1125  1.3198
24550SOL    HW275092   1.421   4.626   0.711  2.0304 -1.4854 -2.0736
24551SOL     OW75093   6.641   5.426   1.326  0.1339 -0.1171  0.4072
24551SOL    HW175094   6.685   5.422   1.241 -2.1859 -0.0051 -0.8872
24551SOL    HW275095   6.655   5.340   1.365  0.9718 -0.2855 -0.2431
24552SOL     OW75096   2.314   3.939   1.583 -0.1414  0.4109 -0.2287
24552SOL    HW175097   2.404   3.971   1.588 -0.1343  1.3970 -3.7114
24552SOL    HW275098   2.264   3.999   1.639  1.1842  0.6671  0.7123
24553SOL     OW75099   7.382   7.046   1.605  0.0710  0.3902 -0.6745
24553SOL    HW175100   7.360   6.991   1.530 -1.1158 -0.1973  0.0751
24553SOL    HW275101   7.436   6.990   1.661 -2.3153 -0.5801  0.7776
24554SOL     OW75102   7.316   4.472  12.027 -0.4398  0.6876 -0.5118
24554SOL    HW175103   7.383   4.515  12.080 -1.4308  2.0172 -0.2700
24554SOL    HW275104   7.241   4.462  12.085 -1.0762  0.9150 -1.2657
24555SOL     OW75105   7.542   5.925   1.319  0.0956  0.4149  0.6208
24555SOL    HW175106   7.604   5.945   1.389 -0.9843  0.3722  1.6344
24555SOL    HW275107   7.492   5.851   1.352  0.1403 -0.1700 -0.5843
24556SOL     OW75108   1.345   5.160   0.826  0.0631  0.1991 -0.2907
24556SOL    HW175109   1.303   5.237   0.865  0.6372 -0.6460  2.2068
24556SOL    HW275110   1.291   5.139   0.749 -2.7906  0.4709  1.4881
24557SOL     OW75111   7.740   5.975   1.522 -0.2621  0.4121  0.3118
24557SOL    HW175112   7.822   5.968   1.474 -0.4407 -2.1407  0.2228
24557SOL    HW275113   7.752   6.050   1.581  2.2285 -0.0655  0.5103
24558SOL     OW75114   0.979   5.325   1.511  0.1707 -0.2035 -0.8554
24558SOL    HW175115   0.914   5.359   1.573  1.3965 -0.4260  0.6323
24558SOL    HW275116   0.928   5.285   1.441 -1.2806  0.4991 -0.2308
24559SOL     OW75117   0.196   4.471   0.712  0.5266  0.1056 -0.0015
24559SOL    HW175118   0.111   4.477   0.668  0.3808  0.9919  0.3847
24559SOL    HW275119   0.175   4.449   0.802  0.8719 -2.8045 -0.5260
24560SOL     OW75120   5.919   2.536  12.425 -0.7664 -0.5687 -0.1628
24560SOL    HW175121   5.874   2.489  12.355 -1.7139 -1.6287  1.0951
24560SOL    HW275122   5.930   2.470  12.494 -1.3689  0.8209  1.3246
24561SOL     OW75123   0.506   5.367   1.023  0.4747 -0.0599  0.0934
24561SOL    HW175124   0.500   5.286   0.974  1.8988 -0.1699  0.0677
24561SOL    HW275125   0.423   5.373   1.070 -0.5202 -0.4453 -1.5408
24562SOL     OW75126   7.105   5.381   0.947  0.0263  0.7113  0.0467
24562SOL    HW175127   7.133   5.291   0.961 -0.5147  0.1342 -2.1711
24562SOL    HW275128   7.012   5.382   0.967  0.1874  1.0045  0.8437
24563SOL     OW75129   7.083   4.960   1.109 -0.0704  0.1810 -0.1283
24563SOL    HW175130   7.047   4.984   1.195  0.7359  1.4269 -0.1138
24563SOL    HW275131   7.043   5.021   1.048 -2.5216 -2.2121 -1.1073
24564SOL     OW75132   5.882   3.317   0.342 -0.9157 -0.4039 -0.5072
24564SOL    HW175133   5.941   3.256   0.384 -0.1146 -1.5099 -3.0335
24564SOL    HW275134   5.937   3.392   0.319 -0.9807 -0.4921 -0.9597
24565SOL     OW75135   7.404   5.058   2.496  0.3373  0.3050 -0.0562
24565SOL    HW175136   7.350   5.099   2.428  0.4700  1.0821  0.2908
24565SOL    HW275137   7.341   5.011   2.552  0.1481  0.2519 -0.3133
24566SOL     OW75138   0.401   5.091   0.647 -0.3883  0.2007 -0.5481
24566SOL    HW175139   0.452   5.036   0.587 -0.6198  0.0669 -0.6238
24566SOL    HW275140   0.321   5.112   0.599 -0.0731  1.0462 -0.7231
24567SOL     OW75141   0.729   5.382   1.175 -0.4615  0.5722  0.1984
24567SOL    HW175142   0.752   5.468   1.140  0.0466  0.2694 -0.2272
24567SOL    HW275143   0.665   5.347   1.112 -0.6160  0.6071  0.3342
24568SOL     OW75144   0.211   4.850   1.775 -0.2719  0.5784 -0.1601
24568SOL    HW175145   0.289   4.811   1.815 -2.2410 -2.4745  1.0911
24568SOL    HW275146   0.219   4.829   1.682  1.4167  2.3314 -0.4706
24569SOL     OW75147   6.827   3.364  10.663 -0.3199  0.0508 -0.7701
24569SOL    HW175148   6.802   3.296  10.726  1.8643  1.2311  1.5061
24569SOL    HW275149   6.895   3.323  10.610  1.8667  0.6862  1.3791
24570SOL     OW75150   7.518   7.072   3.167 -0.1470 -0.3915  0.2058
24570SOL    HW175151   7.570   7.141   3.208  2.0877 -0.9952 -1.4111
24570SOL    HW275152   7.494   7.107   3.081  0.3888 -1.3020 -0.3420
24571SOL     OW75153   6.728   5.790   2.469 -0.1263 -0.4694 -0.2197
24571SOL    HW175154   6.644   5.745   2.459  0.5511 -2.2572  1.4718
24571SOL    HW275155   6.762   5.797   2.380 -1.1849 -1.5267 -0.7446
24572SOL     OW75156   5.978   4.597  12.474 -0.3072 -0.4184 -0.9893
24572SOL    HW175157   6.035   4.526  12.502  0.9002  1.3527  1.4442
24572SOL    HW275158   5.910   4.602  12.541 -0.8618  0.2100 -1.5743
24573SOL     OW75159   0.064   4.497   1.040  0.2276  0.0327 -0.3473
24573SOL    HW175160   0.012   4.469   0.964 -0.3767  1.3156 -0.4226
24573SOL    HW275161   0.009   4.563   1.084 -0.2413 -1.8975  2.2336
24574SOL     OW75162   1.784   3.472  12.174  0.0907 -0.1949 -0.4028
24574SOL    HW175163   1.819   3.390  12.140  1.1833 -0.8233  2.0643
24574SOL    HW275164   1.848   3.538  12.146  0.4993 -0.5610 -0.3451
24575SOL     OW75165   0.851   5.596   1.068  0.2037 -0.2768 -0.3218
24575SOL    HW175166   0.883   5.594   0.978  2.0864  0.0510  0.2987
24575SOL    HW275167   0.819   5.685   1.081  3.8408  1.1225  0.5035
24576SOL     OW75168   7.703   3.849   1.596 -0.5019 -0.0235 -0.7277
24576SOL    HW175169   7.749   3.766   1.598 -0.0306  0.2214 -1.2051
24576SOL    HW275170   7.618   3.831   1.638 -0.2045 -0.6125 -0.3671
24577SOL     OW75171   6.384   4.891   0.702 -0.1289  0.2580  0.6970
24577SOL    HW175172   6.310   4.868   0.759  0.4785  0.7035  1.6971
24577SOL    HW275173   6.461   4.853   0.746  0.3578  0.6323  0.1818
24578SOL     OW75174   6.810   5.118   3.212 -0.2149  0.5231  0.0294
24578SOL    HW175175   6.773   5.105   3.125  0.9379 -0.8079 -0.2891
24578SOL    HW275176   6.838   5.031   3.240  1.5906  1.2794  0.7484
24579SOL     OW75177   7.538   6.833   2.031  0.2391 -0.2958  0.3021
24579SOL    HW175178   7.458   6.804   2.076 -0.0437 -0.8427 -0.5337
24579SOL    HW275179   7.605   6.771   2.060 -0.4325 -2.0884 -1.7227
24580SOL     OW75180   7.452   4.778   2.769 -0.0219 -0.4851  0.0580
24580SOL    HW175181   7.367   4.816   2.748  0.4671 -0.4149 -1.9877
24580SOL    HW275182   7.516   4.840   2.735  1.0619  1.0572  4.2372
24581SOL     OW75183   7.007   5.474   2.041  0.5100  0.6079 -0.3573
24581SOL    HW175184   7.078   5.411   2.052 -0.1526 -0.5434 -2.2156
24581SOL    HW275185   7.049   5.551   2.003  1.1810  1.0194  1.1347
24582SOL     OW75186   7.370   7.199   3.444  0.0723 -0.4613  0.0187
24582SOL    HW175187   7.358   7.280   3.494 -0.7701 -0.3505 -0.3384
24582SOL    HW275188   7.365   7.227   3.352 -1.3079 -1.0482 -0.1106
24583SOL     OW75189   1.012   4.990   1.321 -0.7673 -0.3355  0.2719
24583SOL    HW175190   1.066   4.959   1.248 -2.0282 -0.0380 -0.8211
24583SOL    HW275191   0.986   5.078   1.296 -3.3609 -1.1550 -0.1954
24584SOL     OW75192   6.742   4.185   2.608 -0.0296 -0.4476 -0.1152
24584SOL    HW175193   6.792   4.229   2.539  1.0302 -1.5769 -0.0969
24584SOL    HW275194   6.797   4.111   2.635 -0.4550 -0.0856  1.9040
24585SOL     OW75195   7.656   6.659   2.201 -0.0839 -0.4540 -0.2267
24585SOL    HW175196   7.738   6.628   2.239 -0.8323  0.1453  2.0464
24585SOL    HW275197   7.595   6.586   2.211  0.1458 -0.9426 -2.0195
24586SOL     OW75198   7.598   4.068   3.132 -0.2587 -0.1523 -0.0734
24586SOL    HW175199   7.677   4.113   3.102  0.0855  0.5172  1.7286
24586SOL    HW275200   7.539   4.069   3.056  0.5475  1.4713 -0.7198
24587SOL     OW75201   7.020   4.883   2.077 -0.0633 -0.4902 -0.3903
24587SOL    HW175202   6.973   4.961   2.104  0.5881 -0.7747  1.7213
24587SOL    HW275203   7.102   4.915   2.040 -0.3563 -0.1385 -0.7413
24588SOL     OW75204   6.673   4.133   3.676  0.2692  0.5906  0.5363
24588SOL    HW175205   6.639   4.157   3.590 -0.6742 -2.9280 -0.2187
24588SOL    HW275206   6.600   4.150   3.736 -0.0806  0.4176  0.1659
24589SOL     OW75207   7.680   4.556   2.099  0.1275  0.3342 -0.2544
24589SOL    HW175208   7.633   4.632   2.066 -0.9020 -0.1843 -0.0360
24589SOL    HW275209   7.724   4.520   2.022  1.4986  1.7324 -0.1599
24590SOL     OW75210   5.815   7.996   1.972  0.0539  0.1652 -0.3348
24590SOL    HW175211   5.856   8.056   2.035  0.1368 -3.2223  3.2677
24590SOL    HW275212   5.722   8.015   1.978  0.0153 -0.3216  1.2469
24591SOL     OW75213   0.471   4.612   3.437  0.1323  0.0661 -0.2853
24591SOL    HW175214   0.557   4.594   3.474  0.2867 -0.8819 -1.0716
24591SOL    HW275215   0.415   4.542   3.470  0.0676 -0.2790 -1.0893
24592SOL     OW75216   7.238   7.336   2.917 -0.0988  0.0373  0.3597
24592SOL    HW175217   7.259   7.273   2.848  2.0804 -0.3698  1.3164
24592SOL    HW275218   7.225   7.419   2.871 -1.5979 -0.7796 -0.7808
24593SOL     OW75219   7.098   4.067   1.809  0.1932  0.3902 -0.3259
24593SOL    HW175220   7.007   4.047   1.831 -0.0966  1.2738 -0.6959
24593SOL    HW275221   7.092   4.129   1.737  1.1032 -1.2808 -1.9387
24594SOL     OW75222   0.523   3.625   2.718  0.0353  0.1251  0.2993
24594SOL    HW175223   0.592   3.589   2.775 -0.0650  0.3192  0.5447
24594SOL    HW275224   0.528   3.719   2.731 -0.3630  0.1339  0.4206
24595SOL     OW75225   5.296   4.680   3.062 -0.5887 -0.3054  0.0215
24595SOL    HW175226   5.303   4.726   3.145 -0.3289 -0.0331 -0.1495
24595SOL    HW275227   5.369   4.619   3.062 -0.5063 -0.2076 -0.0664
24596SOL     OW75228   6.307   5.136   2.070 -0.6925 -0.0424 -0.2336
24596SOL    HW175229   6.347   5.202   2.128 -0.2442  1.0588 -1.7268
24596SOL    HW275230   6.342   5.156   1.984 -0.8778 -2.0272 -0.8102
24597SOL     OW75231   6.637   5.725   1.402  0.2850  0.0253 -0.4226
24597SOL    HW175232   6.624   5.647   1.349 -0.4883  0.2857 -0.6270
24597SOL    HW275233   6.634   5.797   1.339  0.7178  0.2442 -0.2003
24598SOL     OW75234   0.563   4.195   2.114 -0.0826  0.1683  0.3372
24598SOL    HW175235   0.472   4.193   2.082 -0.3445 -1.4101  1.0665
24598SOL    HW275236   0.614   4.227   2.040 -1.0084 -0.8379 -0.7750
24599SOL     OW75237   0.912   5.335   0.907 -0.5715  0.4032  0.1199
24599SOL    HW175238   0.927   5.414   0.856  0.3998  1.3861  1.8291
24599SOL    HW275239   0.859   5.364   0.981 -1.1260 -0.7774  0.2114
24600SOL     OW75240   0.567   6.983   3.020 -0.5003  0.4950  0.5064
24600SOL    HW175241   0.643   6.943   3.062  0.1308  0.5558 -0.5450
24600SOL    HW275242   0.529   7.038   3.088  0.6897  0.8572  0.9093
24601SOL     OW75243   6.631   4.802   3.194  0.0676 -0.1824 -0.3536
24601SOL    HW175244   6.722   4.827   3.210 -0.2223  1.0634 -0.5335
24601SOL    HW275245   6.615   4.731   3.255 -0.3932  2.9917  3.6479
24602SOL     OW75246   6.772   3.752   1.015 -0.1379  1.2652  0.0828
24602SOL    HW175247   6.824   3.757   0.934  0.0417  1.2632  0.1986
24602SOL    HW275248   6.725   3.669   1.008  0.2495  1.0324  0.2049
24603SOL     OW75249   0.543   6.317   3.723 -0.0973 -0.1177  0.0299
24603SOL    HW175250   0.475   6.302   3.789 -0.1600 -0.2367 -0.0608
24603SOL    HW275251   0.569   6.408   3.736 -0.3760 -0.0288 -0.0313
24604SOL     OW75252   7.735   4.686   3.322 -0.8980  0.2563  0.3213
24604SOL    HW175253   7.718   4.721   3.235  0.9495  0.3917 -0.0273
24604SOL    HW275254   7.830   4.693   3.333 -0.6727 -2.5591  1.1308
24605SOL     OW75255   7.985   4.714   2.455  0.1349 -0.6316  0.7472
24605SOL    HW175256   7.982   4.657   2.378  0.1523 -1.3880  1.2860
24605SOL    HW275257   7.950   4.798   2.425 -0.5643 -1.1387  0.1007
24606SOL     OW75258   6.398   5.374   1.121  0.3406  0.0371  0.3749
24606SOL    HW175259   6.381   5.447   1.181  1.0569  1.3218 -0.9004
24606SOL    HW275260   6.428   5.303   1.177  0.4940  1.0196  1.5922
24607SOL     OW75261   7.349   3.796   3.175  0.2656  0.0926 -0.0541
24607SOL    HW175262   7.307   3.723   3.221 -0.6006  0.1450 -0.7319
24607SOL    HW275263   7.383   3.852   3.245  0.0183 -0.4242  0.4916
24608SOL     OW75264   0.626   4.262   3.949  0.0300 -0.2281  0.2818
24608SOL    HW175265   0.622   4.351   3.912  0.4678 -0.4336 -0.2749
24608SOL    HW275266   0.709   4.259   3.996 -0.2980 -0.1289  0.8794
24609SOL     OW75267   6.897   3.340   2.582 -0.8584  0.3818 -0.1492
24609SOL    HW175268   6.810   3.363   2.551 -0.6115  0.4544 -0.8036
24609SOL    HW275269   6.955   3.364   2.510 -0.5066 -1.5689 -0.5810
24610SOL     OW75270   0.940   6.692   2.967 -0.4192 -0.4492 -0.4675
24610SOL    HW175271   1.024   6.735   2.982 -0.0112 -1.3271 -0.1684
24610SOL    HW275272   0.913   6.722   2.880  0.4061 -0.4666 -0.7403
24611SOL     OW75273   0.145   3.573   2.142 -0.0404  0.4966  0.6218
24611SOL    HW175274   0.137   3.591   2.235  0.8004 -2.1164  1.2836
24611SOL    HW275275   0.061   3.534   2.117 -1.5617  4.1477 -0.6107
24612SOL     OW75276   6.923   5.354   3.363 -0.1228 -0.3870 -0.0762
24612SOL    HW175277   6.900   5.439   3.326 -2.3023 -0.3131  1.2686
24612SOL    HW275278   6.893   5.291   3.297  2.8712 -0.1746 -1.7769
24613SOL     OW75279   0.084   4.503   1.867 -0.2080 -0.2643  0.3182
24613SOL    HW175280   0.163   4.549   1.895 -0.4739  0.6235 -0.3602
24613SOL    HW275281   0.116   4.431   1.812  0.0946  0.6143 -0.6767
24614SOL     OW75282   0.310   5.197   3.428  0.2896 -0.2030 -0.6617
24614SOL    HW175283   0.256   5.121   3.447  0.5752 -0.9628 -2.6186
24614SOL    HW275284   0.262   5.271   3.467 -0.8224 -1.1733 -0.1391
24615SOL     OW75285   6.402   4.075   0.904  0.3397 -0.0050  0.2063
24615SOL    HW175286   6.370   4.066   0.815 -0.8933 -0.7561  0.6953
24615SOL    HW275287   6.322   4.074   0.958  0.9682  1.5165  1.2430
24616SOL     OW75288   6.683   5.243   3.479  0.1242 -0.6947 -0.3485
24616SOL    HW175289   6.634   5.228   3.398  0.9833 -2.3319 -0.5954
24616SOL    HW275290   6.763   5.287   3.452  0.0275 -0.4716 -0.2761
24617SOL     OW75291   6.666   5.767   3.340  0.1922  0.1624  0.2623
24617SOL    HW175292   6.600   5.784   3.272 -0.0022  1.2997  0.7288
24617SOL    HW275293   6.617   5.765   3.421  0.1850 -2.6914  0.2931
24618SOL     OW75294   4.834   4.309   2.414  0.2718 -0.0828  0.6847
24618SOL    HW175295   4.793   4.240   2.467 -1.1366  0.1528 -0.0566
24618SOL    HW275296   4.877   4.365   2.478 -0.4876 -0.4006  1.4993
24619SOL     OW75297   5.285   4.493   4.723 -0.2453 -0.2113  0.5811
24619SOL    HW175298   5.205   4.544   4.737 -0.9007 -1.4659  1.7256
24619SOL    HW275299   5.254   4.402   4.717  1.0746 -0.6916  0.7905
24620SOL     OW75300   7.202   4.642   2.514  0.0380 -0.3685  0.3775
24620SOL    HW175301   7.185   4.671   2.425  1.2109  0.4277  0.3771
24620SOL    HW275302   7.132   4.581   2.534 -0.2007 -0.6178 -1.1152
24621SOL     OW75303   5.700   4.586   5.080  0.1723 -0.6327 -0.4538
24621SOL    HW175304   5.656   4.648   5.022 -0.5694 -1.8354 -1.2355
24621SOL    HW275305   5.750   4.640   5.141 -1.3615  0.7442 -0.3629
24622SOL     OW75306   2.087   5.220   1.924 -0.3958 -0.1449 -0.6047
24622SOL    HW175307   2.155   5.158   1.950 -1.3576 -1.1329 -0.3528
24622SOL    HW275308   2.129   5.306   1.930  1.3170 -0.8197 -2.0711
24623SOL     OW75309   7.188   5.698   3.053  0.2726  0.2249 -0.2048
24623SOL    HW175310   7.190   5.794   3.045  0.1367  0.1571 -1.1300
24623SOL    HW275311   7.177   5.682   3.147 -0.1130  1.1198 -0.0895
24624SOL     OW75312   6.078   5.890   1.001  0.5140  0.5685 -0.1167
24624SOL    HW175313   5.996   5.940   1.006  0.7566  0.8750  2.2730
24624SOL    HW275314   6.050   5.799   1.002  0.1496  0.6360  2.3872
24625SOL     OW75315   0.925   5.588   0.806 -0.0607  0.1580 -0.3564
24625SOL    HW175316   0.993   5.628   0.753 -0.2366  0.5939 -0.2586
24625SOL    HW275317   0.846   5.637   0.784  0.1835  1.5687  1.6052
24626SOL     OW75318   7.181   4.224   2.462 -0.2619 -0.0335 -0.0685
24626SOL    HW175319   7.254   4.234   2.523 -0.7842  1.1813  0.3944
24626SOL    HW275320   7.218   4.249   2.377 -0.1997  0.8884  0.2171
24627SOL     OW75321   1.185   7.304   2.890 -0.4961 -0.0480  0.2904
24627SOL    HW175322   1.099   7.264   2.901 -0.0913 -0.8517  0.5481
24627SOL    HW275323   1.193   7.318   2.796 -1.3235  0.9726  0.3528
24628SOL     OW75324   0.462   6.306   2.628  0.4418 -0.2583  0.3310
24628SOL    HW175325   0.529   6.321   2.561  0.4082  0.9185  0.5409
24628SOL    HW275326   0.459   6.387   2.678 -1.5711 -0.0208 -0.0557
24629SOL     OW75327   0.711   4.918   3.811 -0.2401 -0.2172  0.0298
24629SOL    HW175328   0.637   4.931   3.752 -0.1349  2.8083  0.4016
24629SOL    HW275329   0.788   4.933   3.756  0.1428 -2.3492 -0.1160
24630SOL     OW75330   7.117   3.524   1.454 -0.0895 -0.3539  0.1225
24630SOL    HW175331   7.182   3.503   1.386  0.2905  0.1571  0.3189
24630SOL    HW275332   7.167   3.572   1.520  0.0257 -2.5751  1.7704
24631SOL     OW75333   6.663   4.526   2.372 -0.3767  0.1448 -0.4647
24631SOL    HW175334   6.652   4.577   2.292  1.2448  1.6928  0.2452
24631SOL    HW275335   6.573   4.503   2.398 -0.9757  0.2513 -2.2858
24632SOL     OW75336   7.088   7.245   3.575  0.4422  0.2615  0.0039
24632SOL    HW175337   7.174   7.204   3.580  0.6143  0.6620  0.3750
24632SOL    HW275338   7.052   7.236   3.663  1.2669  2.5583  0.6757
24633SOL     OW75339   6.755   5.772   3.787 -0.5166 -0.3939 -0.5133
24633SOL    HW175340   6.743   5.683   3.753  0.2968 -0.4624 -0.6408
24633SOL    HW275341   6.814   5.761   3.861  0.5560  0.1716 -1.2585
24634SOL     OW75342   7.066   5.246   2.642 -0.0718 -0.4333 -0.0127
24634SOL    HW175343   7.044   5.172   2.698  0.1842  0.1796  0.9146
24634SOL    HW275344   7.135   5.293   2.689 -0.4222  0.5456 -0.4451
24635SOL     OW75345   7.481   3.446   3.307 -0.0739  0.5113 -0.4643
24635SOL    HW175346   7.391   3.417   3.291 -0.4564  1.1335  0.4556
24635SOL    HW275347   7.507   3.488   3.226 -0.2883 -0.4574 -1.0541
24636SOL     OW75348   2.284   3.895   1.030  0.0845 -0.0602  0.3870
24636SOL    HW175349   2.243   3.824   1.080  0.6627 -1.0007 -0.4383
24636SOL    HW275350   2.286   3.969   1.091 -1.3720 -0.4546  0.9703
24637SOL     OW75351   6.185   5.625   2.306 -0.1035 -0.2522  0.2102
24637SOL    HW175352   6.188   5.562   2.234  2.4597 -0.4225  0.3567
24637SOL    HW275353   6.240   5.698   2.276 -0.3460  0.4215  1.3417
24638SOL     OW75354   4.476   5.153   4.296 -0.8490  0.3352 -0.5535
24638SOL    HW175355   4.552   5.186   4.247  0.7788 -1.5383  0.5241
24638SOL    HW275356   4.446   5.077   4.246 -0.6723 -0.1714  0.0928
24639SOL     OW75357   5.935   3.350   5.583  0.0210 -0.3815 -0.0031
24639SOL    HW175358   5.989   3.298   5.523 -0.3401  0.9041 -1.5175
24639SOL    HW275359   5.938   3.302   5.665  0.5206 -2.2514 -1.0413
24640SOL     OW75360   7.816   5.074   5.250  0.2135 -0.5991 -0.3523
24640SOL    HW175361   7.828   5.154   5.302  1.0353  0.1327 -1.6074
24640SOL    HW275362   7.829   5.002   5.312  2.3461  0.2353  0.2455
24641SOL     OW75363   6.723   6.702   3.984  0.4521  0.4571 -0.0087
24641SOL    HW175364   6.633   6.733   3.993  0.0618 -0.5132 -0.4174
24641SOL    HW275365   6.736   6.691   3.889  1.2957  1.3917 -0.0268
24642SOL     OW75366   6.042   4.171   5.240  0.0604  0.2139 -0.5961
24642SOL    HW175367   6.028   4.266   5.233 -1.5466 -0.1034 -2.9549
24642SOL    HW275368   5.999   4.146   5.321 -1.1346  1.2900 -0.8677
24643SOL     OW75369   6.771   5.997   4.114 -0.2765  0.0074 -0.8483
24643SOL    HW175370   6.839   5.955   4.060  2.5567  1.5549  1.2293
24643SOL    HW275371   6.792   5.969   4.204 -2.4780  0.5163 -0.1259
24644SOL     OW75372   7.932   6.734   5.898 -0.4925 -0.8373  0.2611
24644SOL    HW175373   7.956   6.687   5.818 -3.7157 -1.0000 -0.7399
24644SOL    HW275374   7.876   6.673   5.946  1.2156 -0.6753  2.6744
24645SOL     OW75375   7.067   4.840   2.983  0.4053 -0.0301 -0.1137
24645SOL    HW175376   7.060   4.755   2.941  0.9524 -1.2204  2.0385
24645SOL    HW275377   7.014   4.832   3.062  0.5276  1.6159  0.1775
24646SOL     OW75378   6.510   4.038   4.541 -0.4026 -0.3950 -0.2808
24646SOL    HW175379   6.540   3.981   4.470  1.1337 -0.4578  0.3933
24646SOL    HW275380   6.577   4.031   4.609 -1.3317  0.4466  0.7775
24647SOL     OW75381   7.456   6.012   4.259  0.0885 -0.3664  0.4337
24647SOL    HW175382   7.457   5.935   4.317 -0.3908 -2.2388 -1.8733
24647SOL    HW275383   7.547   6.025   4.234  0.0625 -0.8193  0.0863
24648SOL     OW75384   0.301   6.176   5.733  0.5513 -0.1028 -0.6033
24648SOL    HW175385   0.360   6.252   5.737  1.4304 -0.7734 -0.4849
24648SOL    HW275386   0.283   6.165   5.640  0.1490  0.4443 -0.5976
24649SOL     OW75387   0.100   4.711   4.771 -0.8775  0.1039 -0.0839
24649SOL    HW175388   0.049   4.633   4.794 -1.4694  0.2430 -0.9030
24649SOL    HW275389   0.034   4.779   4.755 -0.3841  0.6419  0.1186
24650SOL     OW75390   0.613   4.907   5.191  0.1550  0.1356  0.0757
24650SOL    HW175391   0.651   4.846   5.128  1.7082  1.2538 -0.1396
24650SOL    HW275392   0.589   4.984   5.138 -2.1170 -0.3464  0.2718
24651SOL     OW75393   7.447   4.079   2.908  0.3392 -0.1187  0.3296
24651SOL    HW175394   7.380   4.012   2.890  0.2457 -0.8320  2.9282
24651SOL    HW275395   7.401   4.162   2.899 -0.3891 -0.5320  0.1514
24652SOL     OW75396   6.686   5.105   4.845 -0.3189 -0.3300 -0.3468
24652SOL    HW175397   6.642   5.126   4.927  0.1355  1.1191 -0.4557
24652SOL    HW275398   6.708   5.012   4.853  0.6735  0.0260  1.6467
24653SOL     OW75399   7.478   5.068   4.928  0.0312 -0.5015  0.0056
24653SOL    HW175400   7.510   5.099   4.843 -0.5712  0.0872 -0.0234
24653SOL    HW275401   7.528   5.118   4.993 -0.7455  0.3785 -0.0384
24654SOL     OW75402   0.372   5.035   4.677  0.4681  0.3386 -0.4208
24654SOL    HW175403   0.362   5.015   4.770 -0.4554 -1.1763 -0.8055
24654SOL    HW275404   0.335   5.123   4.668 -0.1393  0.2041  0.5310
24655SOL     OW75405   6.959   6.047   5.323  0.0229 -0.2309  0.0694
24655SOL    HW175406   7.007   6.046   5.405 -0.8399  1.1738  0.6219
24655SOL    HW275407   6.867   6.039   5.348 -0.1857 -0.9131 -0.8382
24656SOL     OW75408   5.041   3.894   2.912  0.3122 -0.0385  0.5291
24656SOL    HW175409   5.034   3.950   2.989 -0.0590 -0.4581  0.8085
24656SOL    HW275410   4.958   3.904   2.866  0.1448 -0.5416  0.7134
24657SOL     OW75411   7.648   5.238   5.127  0.1381  0.3798 -0.2199
24657SOL    HW175412   7.585   5.244   5.198 -0.1289  0.9982 -0.5076
24657SOL    HW275413   7.709   5.170   5.155 -1.2691 -1.0243 -0.4184
24658SOL     OW75414   6.488   4.572   6.451  0.0999 -0.5449 -0.2635
24658SOL    HW175415   6.468   4.651   6.501  0.0753 -0.3092 -0.6356
24658SOL    HW275416   6.582   4.574   6.438  0.5037 -1.9345  1.9479
24659SOL     OW75417   0.639   6.292   5.184  0.1237  0.6361 -0.0550
24659SOL    HW175418   0.692   6.224   5.142 -2.9162 -0.8928 -1.7478
24659SOL    HW275419   0.670   6.374   5.145  0.8063 -0.2668 -1.5165
24660SOL     OW75420   0.450   4.997   3.717  0.0543 -0.2760 -0.3164
24660SOL    HW175421   0.464   4.986   3.623 -3.4451 -1.1593 -0.8848
24660SOL    HW275422   0.463   5.091   3.733 -0.0193  0.0109 -1.8355
24661SOL     OW75423   7.586   4.977   2.328  0.2451 -0.0621  0.1156
24661SOL    HW175424   7.556   5.024   2.405  0.9594 -1.8916  1.5744
24661SOL    HW275425   7.541   4.892   2.331  3.1287 -1.7173  0.7550
24662SOL     OW75426   6.780   4.603   3.831  0.0389  0.2956  0.1050
24662SOL    HW175427   6.690   4.584   3.858  0.4105  0.4223  1.5622
24662SOL    HW275428   6.810   4.523   3.788 -1.6822  1.2393 -3.1297
24663SOL     OW75429   1.471   4.112   4.559  0.8121  0.6370 -0.1959
24663SOL    HW175430   1.518   4.041   4.602  2.1208  1.7575  0.2994
24663SOL    HW275431   1.519   4.128   4.478  0.9226  1.3888  0.0133
24664SOL     OW75432   6.936   5.426   4.186 -0.5257  0.0897  0.1558
24664SOL    HW175433   6.875   5.362   4.223 -2.7853  1.9539 -0.1075
24664SOL    HW275434   6.969   5.385   4.106 -3.5496 -0.0389 -1.1553
24665SOL     OW75435   6.956   3.749   4.175 -0.0970 -0.1369  0.4864
24665SOL    HW175436   6.933   3.657   4.188 -0.4634  0.2299  3.0378
24665SOL    HW275437   7.051   3.748   4.164 -0.1938 -0.8653 -0.4851
24666SOL     OW75438   5.494   4.620   6.332 -0.0339 -0.0017  0.5897
24666SOL    HW175439   5.553   4.631   6.257 -0.1789  1.4992  0.6621
24666SOL    HW275440   5.406   4.631   6.296 -0.0770  1.3748  1.0462
24667SOL     OW75441   7.180   4.619   5.015  0.2431 -0.2443 -0.1339
24667SOL    HW175442   7.113   4.673   5.057 -0.0130 -2.3909  2.4603
24667SOL    HW275443   7.252   4.680   4.996 -1.1685  1.5180 -0.1293
24668SOL     OW75444   0.518   5.399   3.996 -0.2215 -0.0095 -0.1449
24668SOL    HW175445   0.490   5.393   3.905 -0.6502 -0.1926 -0.0014
24668SOL    HW275446   0.471   5.474   4.032  0.7394  0.7195 -0.3502
24669SOL     OW75447   7.818   4.392   2.610 -0.0169 -0.1414 -0.1339
24669SOL    HW175448   7.883   4.461   2.619 -0.4586  0.3081 -0.3666
24669SOL    HW275449   7.765   4.418   2.535 -1.3757  0.2525  0.9194
24670SOL     OW75450   6.761   4.218   6.869  0.1568 -0.1208  0.4224
24670SOL    HW175451   6.677   4.252   6.838  0.6798  1.0908  0.3021
24670SOL    HW275452   6.789   4.158   6.800  0.9220  1.9307 -1.1516
24671SOL     OW75453   6.785   6.428   3.597  0.2779  0.3405 -0.2591
24671SOL    HW175454   6.825   6.464   3.518  0.4094  2.2086  0.6247
24671SOL    HW275455   6.846   6.359   3.624  0.7347  0.3429 -1.2357
24672SOL     OW75456   7.790   4.523   4.380  0.0116  0.0297  0.4301
24672SOL    HW175457   7.746   4.608   4.371  2.8482  1.8210  2.1389
24672SOL    HW275458   7.740   4.477   4.447 -1.5637  0.2743 -0.5218
24673SOL     OW75459   7.232   3.887   6.527  0.3476 -0.3780  0.5371
24673SOL    HW175460   7.286   3.904   6.450 -1.0491 -1.0349 -0.6403
24673SOL    HW275461   7.234   3.968   6.577  1.3316  0.0371 -0.1523
24674SOL     OW75462   0.514   3.894   5.743  0.1985 -0.0900 -0.0500
24674SOL    HW175463   0.580   3.912   5.675  0.2164 -0.1839 -0.0586
24674SOL    HW275464   0.481   3.980   5.768  0.8338  0.0136  0.4655
24675SOL     OW75465   7.206   4.081   4.599 -0.1208  0.0847 -0.0487
24675SOL    HW175466   7.254   4.015   4.549  0.5127  0.6267 -0.1658
24675SOL    HW275467   7.123   4.089   4.553  0.1883  0.0814 -0.6147
24676SOL     OW75468   7.733   5.489   5.284  0.1378 -0.6585  0.0766
24676SOL    HW175469   7.701   5.513   5.198 -0.8020 -1.1449  0.2838
24676SOL    HW275470   7.656   5.491   5.341  0.9130  0.7711  1.1651
24677SOL     OW75471   5.281   4.527   4.456 -0.4950 -0.2233  0.6762
24677SOL    HW175472   5.192   4.560   4.458 -0.2320  0.8848 -1.9087
24677SOL    HW275473   5.304   4.514   4.548 -2.7897  0.8571  1.4744
24678SOL     OW75474   7.261   4.192   4.968  0.3033  0.3257 -0.2105
24678SOL    HW175475   7.288   4.214   4.879 -1.0048  0.2701 -0.6279
24678SOL    HW275476   7.290   4.101   4.979  0.8984  0.4847 -0.3928
24679SOL     OW75477   6.087   3.423   5.291  0.3545  0.5816 -0.5667
24679SOL    HW175478   6.134   3.343   5.312 -2.6388 -1.2580 -0.2199
24679SOL    HW275479   6.120   3.488   5.353  1.7614 -0.7928  0.1951
24680SOL     OW75480   0.197   4.630   4.524 -0.9795  0.5082  0.2581
24680SOL    HW175481   0.209   4.724   4.515 -0.8080  0.3508 -1.5939
24680SOL    HW275482   0.146   4.620   4.605 -0.2259  2.1022  0.9813
24681SOL     OW75483   7.118   3.981   2.589  0.4619 -0.1931  0.2001
24681SOL    HW175484   7.088   4.009   2.676 -1.9853 -1.2511 -0.2073
24681SOL    HW275485   7.152   4.060   2.548 -2.3243  1.3373  0.6066
24682SOL     OW75486   0.450   4.343   3.272 -0.0291  0.2071 -0.4166
24682SOL    HW175487   0.535   4.301   3.261  0.7015  1.1438  1.1852
24682SOL    HW275488   0.393   4.275   3.307  0.8761  0.2344  1.2325
24683SOL     OW75489   1.027   4.999   4.873 -0.0184 -0.2949 -0.5987
24683SOL    HW175490   1.060   5.022   4.960  0.1179 -0.8130 -0.5045
24683SOL    HW275491   1.106   4.988   4.820 -0.0729 -0.5724 -0.6265
24684SOL     OW75492   6.966   3.970   3.364  0.2202 -0.2310 -0.0688
24684SOL    HW175493   6.892   3.909   3.365 -0.0057  0.0389  0.9865
24684SOL    HW275494   6.954   4.022   3.443  0.6351  0.9195 -0.7555
24685SOL     OW75495   7.043   5.765   3.697 -0.1388 -0.4073 -0.8286
24685SOL    HW175496   7.093   5.845   3.680  1.0606 -1.5031 -2.9818
24685SOL    HW275497   6.965   5.773   3.642  0.9504 -1.4859 -2.6486
24686SOL     OW75498   6.274   4.038   4.686  0.6875  0.4346 -0.3354
24686SOL    HW175499   6.354   4.029   4.634  0.0201 -0.8738 -1.2039
24686SOL    HW275500   6.204   4.017   4.624 -0.1240 -1.6052  1.1918
24687SOL     OW75501   7.469   5.249   5.325 -0.6534 -0.0056 -0.6295
24687SOL    HW175502   7.414   5.201   5.386 -1.4421  0.1476 -1.1964
24687SOL    HW275503   7.413   5.320   5.293 -0.7860 -0.9001 -2.5888
24688SOL     OW75504   7.614   6.565   4.368  0.8742  0.0554  0.0666
24688SOL    HW175505   7.561   6.529   4.439  0.1427 -0.2936 -0.6504
24688SOL    HW275506   7.577   6.528   4.289  1.8070  0.2953 -0.4939
24689SOL     OW75507   2.063   4.871   5.848  0.2881  0.5541  0.4980
24689SOL    HW175508   2.113   4.798   5.885  1.1964  0.8614 -0.1088
24689SOL    HW275509   2.058   4.852   5.754  0.8307  1.4352  0.2782
24690SOL     OW75510   0.554   4.509   4.637  0.0719 -0.5296  0.2285
24690SOL    HW175511   0.621   4.497   4.705  2.7238  1.5067 -1.8231
24690SOL    HW275512   0.499   4.579   4.671  0.1264 -0.8972  1.1213
24691SOL     OW75513   7.350   3.685   5.742  1.0832 -0.0487  0.7300
24691SOL    HW175514   7.420   3.701   5.679 -0.3455  1.7977 -0.5184
24691SOL    HW275515   7.355   3.759   5.803 -0.1769  0.5302  0.1737
24692SOL     OW75516   7.017   6.252   4.157  0.4467 -0.0991 -0.1460
24692SOL    HW175517   6.976   6.249   4.243 -0.7954  0.5346 -0.6996
24692SOL    HW275518   7.090   6.190   4.164  0.0290 -0.4832  1.1781
24693SOL     OW75519   6.331   4.398   3.701  0.1447 -0.2337 -0.0624
24693SOL    HW175520   6.290   4.314   3.720  0.0652 -0.7655 -2.3509
24693SOL    HW275521   6.263   4.449   3.657  0.8872  0.1320 -0.8197
24694SOL     OW75522   6.984   4.583   5.532  0.0794 -0.0030  0.9718
24694SOL    HW175523   7.067   4.615   5.497  0.4573 -0.7419  1.1664
24694SOL    HW275524   6.937   4.662   5.558 -0.0323  0.5370 -0.7642
24695SOL     OW75525   0.370   3.726   5.588 -0.2158 -0.4874 -0.5143
24695SOL    HW175526   0.430   3.772   5.647 -1.0272  1.3845 -1.0613
24695SOL    HW275527   0.283   3.755   5.615 -0.7384 -1.3221 -1.2373
24696SOL     OW75528   6.983   3.557   3.230  0.2891 -0.3104  0.0986
24696SOL    HW175529   7.005   3.494   3.162  0.2282  1.6983 -1.9000
24696SOL    HW275530   6.911   3.515   3.279 -0.9811 -1.0924 -2.2656
24697SOL     OW75531   7.617   7.338   4.452 -0.4417  0.1009  0.3482
24697SOL    HW175532   7.686   7.296   4.504 -1.0218 -1.8538 -0.3589
24697SOL    HW275533   7.550   7.361   4.517  0.7847  1.9749  1.0338
24698SOL     OW75534   6.939   6.599   5.728  0.1311 -0.2947  0.0188
24698SOL    HW175535   6.987   6.658   5.787 -0.0557 -1.0608  0.9599
24698SOL    HW275536   6.863   6.650   5.700  0.2540  0.1034  0.3928
24699SOL     OW75537   7.276   4.866   3.791 -0.0037 -0.1640 -0.0514
24699SOL    HW175538   7.266   4.813   3.712 -3.6075 -1.8253  1.2955
24699SOL    HW275539   7.241   4.952   3.768 -0.7725 -0.5522 -0.3374
24700SOL     OW75540   0.696   5.819   4.828  0.8476 -0.2227 -0.2325
24700SOL    HW175541   0.681   5.829   4.734  0.8978 -0.2403 -0.2420
24700SOL    HW275542   0.710   5.909   4.859  0.0510 -0.1245 -0.1126
24701SOL     OW75543   6.608   4.488   4.298  0.4466 -0.3443 -0.1432
24701SOL    HW175544   6.679   4.537   4.339  0.4560 -0.6783  0.2516
24701SOL    HW275545   6.529   4.539   4.316  0.2285 -1.2384  1.6239
24702SOL     OW75546   6.526   4.214   5.181  0.3344 -0.2490  0.8074
24702SOL    HW175547   6.448   4.188   5.132  1.0641 -0.4508 -0.2673
24702SOL    HW275548   6.554   4.133   5.225  0.1341 -0.2513  0.9351
24703SOL     OW75549   7.040   5.554   5.132  0.2543 -0.8383  0.2812
24703SOL    HW175550   7.009   5.533   5.220 -0.5853  0.0432  0.2123
24703SOL    HW275551   7.036   5.650   5.127  0.7292 -0.8487 -0.5644
24704SOL     OW75552   7.846   4.055   6.948  0.1085  0.6358 -0.2822
24704SOL    HW175553   7.817   3.991   6.883 -0.7499  0.1403  0.5609
24704SOL    HW275554   7.931   4.085   6.916  0.6978 -1.1835 -0.5215
24705SOL     OW75555   2.108   2.784   4.931  0.7451 -0.1599 -0.3145
24705SOL    HW175556   2.064   2.863   4.960  1.7804  0.9833 -1.7042
24705SOL    HW275557   2.185   2.777   4.986  0.2914 -0.6187  0.2774
24706SOL     OW75558   7.860   4.499   5.621  0.1783  0.4659 -0.0003
24706SOL    HW175559   7.779   4.454   5.643 -0.1155  1.2616  0.6023
24706SOL    HW275560   7.882   4.468   5.533  1.0572 -2.3399  1.0914
24707SOL     OW75561   7.520   3.927   6.617  0.2302  0.3618  0.1716
24707SOL    HW175562   7.454   3.944   6.683  0.4369  0.7862  0.2689
24707SOL    HW275563   7.556   4.013   6.595 -0.4995  0.3444 -1.1908
24708SOL     OW75564   7.718   4.914   6.402  0.0241 -0.2203  0.4357
24708SOL    HW175565   7.803   4.871   6.393  0.0646  0.3955 -3.6961
24708SOL    HW275566   7.740   5.006   6.418  0.0108 -0.4868  2.2032
24709SOL     OW75567   0.530   4.387   5.476 -0.6935  0.1823 -0.2015
24709SOL    HW175568   0.495   4.475   5.492 -2.3521 -0.6752  1.1498
24709SOL    HW275569   0.617   4.403   5.437 -1.4212  2.3927 -1.0934
24710SOL     OW75570   6.743   4.694   8.383  0.2062 -0.0312 -0.2463
24710SOL    HW175571   6.779   4.706   8.471  0.4289  0.9373 -0.4518
24710SOL    HW275572   6.820   4.687   8.327  0.0967 -2.3541 -0.1950
24711SOL     OW75573   0.413   3.462   5.728 -0.0792  0.2260  0.4945
24711SOL    HW175574   0.506   3.472   5.748 -0.3597  0.6288  1.6278
24711SOL    HW275575   0.396   3.526   5.659  0.6773 -0.5085 -0.4164
24712SOL     OW75576   7.025   3.881   6.724 -0.2217  0.2156  0.3771
24712SOL    HW175577   6.966   3.806   6.721  1.5640 -1.2093 -0.8237
24712SOL    HW275578   7.091   3.863   6.657  1.2669  2.0110  1.2678
24713SOL     OW75579   6.853   5.133   9.400 -0.2448  0.3309 -0.1002
24713SOL    HW175580   6.905   5.187   9.460  1.4799 -0.5585 -0.7084
24713SOL    HW275581   6.901   5.050   9.395  0.5415  0.8177 -3.7568
24714SOL     OW75582   7.437   3.824   7.228 -0.4627  0.2081  0.4326
24714SOL    HW175583   7.349   3.862   7.224 -0.7704 -0.2829  1.8919
24714SOL    HW275584   7.428   3.750   7.288  0.4147 -1.3744 -1.2836
24715SOL     OW75585   0.154   3.836   7.018 -0.0502  0.2166  0.5099
24715SOL    HW175586   0.076   3.867   6.973 -0.8077  0.2165  1.7828
24715SOL    HW275587   0.206   3.795   6.949 -2.0409 -1.4962 -0.0880
24716SOL     OW75588   0.835   1.634   7.605  0.2359 -0.3322  0.3279
24716SOL    HW175589   0.787   1.607   7.683  0.0436  0.0458  0.3435
24716SOL    HW275590   0.861   1.552   7.563  0.1310 -0.5381  0.6589
24717SOL     OW75591   6.711   2.741   6.845  0.3354 -0.0733  0.1371
24717SOL    HW175592   6.759   2.776   6.771 -2.0588  0.5019 -1.2622
24717SOL    HW275593   6.731   2.648   6.845  2.6080  0.3579  0.6054
24718SOL     OW75594   0.576   5.050   6.568 -0.4752  0.2504 -0.0657
24718SOL    HW175595   0.491   5.094   6.563 -0.3151  0.5860  0.1288
24718SOL    HW275596   0.608   5.050   6.478 -0.9346 -0.3891 -0.2364
24719SOL     OW75597   7.312   4.459   6.823 -0.0250 -0.2171  0.2978
24719SOL    HW175598   7.218   4.446   6.838 -0.2022  0.8807  0.2267
24719SOL    HW275599   7.350   4.464   6.911 -0.1437  0.0253  0.3376
24720SOL     OW75600   7.239   3.612   6.142  0.4690 -0.1227  0.2683
24720SOL    HW175601   7.195   3.527   6.136 -1.3573  0.7917 -0.0219
24720SOL    HW275602   7.247   3.628   6.236 -0.2835 -0.1001  0.3364
24721SOL     OW75603   7.788   4.859   4.812 -0.3305 -0.3213 -0.5625
24721SOL    HW175604   7.849   4.904   4.871 -1.9778  1.4182 -0.0701
24721SOL    HW275605   7.754   4.786   4.864 -2.0502  1.4119  0.9247
24722SOL     OW75606   6.885   5.732   9.522  0.5735  0.5651 -0.4727
24722SOL    HW175607   6.895   5.822   9.493 -0.3721  2.0635  3.3295
24722SOL    HW275608   6.915   5.732   9.613 -1.5778 -2.3881  0.3924
24723SOL     OW75609   7.658   2.937   8.398  0.0927  0.7205  0.2021
24723SOL    HW175610   7.565   2.921   8.409 -0.0666  1.6975  0.3489
24723SOL    HW275611   7.668   3.032   8.408  0.9603  0.7617 -0.7725
24724SOL     OW75612   0.323   3.366   7.527  0.1289  0.2417 -0.0121
24724SOL    HW175613   0.353   3.375   7.437 -0.5470  1.4288 -0.1377
24724SOL    HW275614   0.232   3.396   7.525  0.1116  0.2948  1.0605
24725SOL     OW75615   7.100   6.236   8.480 -1.0903  0.0405  0.3242
24725SOL    HW175616   7.040   6.171   8.515 -0.0366 -1.2415 -0.1729
24725SOL    HW275617   7.180   6.226   8.530 -0.0822 -0.7759 -1.3492
24726SOL     OW75618   1.167   3.552   4.767 -0.2957  0.0254 -0.1788
24726SOL    HW175619   1.243   3.607   4.747  1.4695 -2.1158  0.1053
24726SOL    HW275620   1.140   3.579   4.854  1.5810 -0.5788  0.6500
24727SOL     OW75621   1.623   1.753   5.772  0.1350  0.4242  0.0010
24727SOL    HW175622   1.585   1.760   5.859  2.4854 -2.1904  1.4119
24727SOL    HW275623   1.717   1.764   5.787  0.5686  0.1743 -2.2474
24728SOL     OW75624   7.862   3.741   6.615 -0.0578  0.1268 -0.2144
24728SOL    HW175625   7.889   3.824   6.577  1.2184  0.2171  0.8229
24728SOL    HW275626   7.908   3.674   6.564  0.6111  0.1824  0.3002
24729SOL     OW75627   6.493   3.454   7.580 -0.5726  0.1762 -0.2871
24729SOL    HW175628   6.554   3.426   7.512  1.1443  2.2331  0.3247
24729SOL    HW275629   6.416   3.485   7.533 -0.3475 -0.5474 -1.1536
24730SOL     OW75630   6.472   4.116   9.037 -0.7846 -0.6358 -0.4806
24730SOL    HW175631   6.427   4.199   9.020  1.5765  0.4249 -2.1309
24730SOL    HW275632   6.450   4.061   8.962 -1.7845 -1.2995  0.2697
24731SOL     OW75633   7.537   3.054   6.677 -0.6063 -0.2861 -0.2277
24731SOL    HW175634   7.463   3.063   6.738  0.3137  1.7258  0.6672
24731SOL    HW275635   7.614   3.054   6.733  0.1546 -1.9149 -1.1886
24732SOL     OW75636   7.128   2.830   6.671  0.3309  0.1086 -0.0752
24732SOL    HW175637   7.211   2.811   6.629  0.0046  0.2140 -0.7820
24732SOL    HW275638   7.137   2.921   6.700  0.4353  0.1442 -0.2165
24733SOL     OW75639   1.129   4.911   6.229  0.0544  0.4531  0.5247
24733SOL    HW175640   1.074   4.894   6.305  0.1527  0.2906  0.5600
24733SOL    HW275641   1.206   4.955   6.264 -0.6367  1.9146  0.3150
24734SOL     OW75642   6.729   5.292   8.060 -0.3098  0.4203  0.1413
24734SOL    HW175643   6.808   5.247   8.090 -1.9842 -0.1817  4.2025
24734SOL    HW275644   6.755   5.384   8.054  1.0530  0.0391 -0.1284
24735SOL     OW75645   6.958   4.958   8.032 -0.2842 -0.1142  0.0350
24735SOL    HW175646   6.867   4.957   8.002  0.6810  0.5593 -3.3424
24735SOL    HW275647   6.984   4.866   8.032 -1.3324 -0.5222  2.7551
24736SOL     OW75648   0.029   3.534   6.570 -0.2651 -0.7264 -0.8111
24736SOL    HW175649   0.097   3.581   6.619 -1.1984  0.2913 -0.4463
24736SOL    HW275650   0.048   3.441   6.586  0.2673 -0.4364  0.3751
24737SOL     OW75651   0.238   4.520   7.859  0.2348  0.3399  0.6086
24737SOL    HW175652   0.156   4.540   7.905 -0.1966 -1.1200  0.5303
24737SOL    HW275653   0.235   4.575   7.781 -0.6502  0.3754  0.6501
24738SOL     OW75654   0.624   3.934   7.793 -0.2258 -0.3859  0.4988
24738SOL    HW175655   0.540   3.962   7.831 -0.4205 -0.4325  0.1062
24738SOL    HW275656   0.636   3.844   7.825 -0.0512 -0.1867  1.0060
24739SOL     OW75657   6.528   5.030   8.448  0.6782 -0.0533  0.3713
24739SOL    HW175658   6.591   5.025   8.520  0.0630 -0.1488  0.9131
24739SOL    HW275659   6.457   5.084   8.483 -0.0913 -0.9398  0.1953
24740SOL     OW75660   6.538   4.222   8.288 -0.5082  0.0045  0.4806
24740SOL    HW175661   6.555   4.149   8.346  1.0867  0.3615  0.5265
24740SOL    HW275662   6.537   4.299   8.345  1.7025  0.4337  0.0460
24741SOL     OW75663   6.167   3.985   6.301 -0.2740  0.5127  0.6704
24741SOL    HW175664   6.082   4.014   6.334 -0.8359 -1.2017  0.8086
24741SOL    HW275665   6.146   3.930   6.226  0.7130  0.0873  0.6904
24742SOL     OW75666   7.433   3.287   5.562 -0.2310  0.4148 -0.4478
24742SOL    HW175667   7.492   3.353   5.599  1.5627 -1.1916 -0.2700
24742SOL    HW275668   7.458   3.281   5.470  1.9013 -2.1330  0.1543
24743SOL     OW75669   0.996   3.769   6.713  0.3189  0.4569 -0.2607
24743SOL    HW175670   0.941   3.848   6.711  0.4477  0.6179  1.4969
24743SOL    HW275671   1.085   3.802   6.700  0.1549  0.3096 -1.9973
24744SOL     OW75672   0.236   4.728   7.341 -0.3618  0.6104  0.6485
24744SOL    HW175673   0.267   4.818   7.335 -2.4760  1.4276  1.1566
24744SOL    HW275674   0.154   4.727   7.292  0.6003 -1.5877 -1.1310
24745SOL     OW75675   0.688   4.772   6.950  0.2435  0.0472 -0.0881
24745SOL    HW175676   0.719   4.860   6.970  0.5240 -0.0029 -0.2919
24745SOL    HW275677   0.600   4.785   6.915  0.3893  0.2721 -0.3732
24746SOL     OW75678   7.483   3.729   4.657 -0.5990 -0.7419  0.0223
24746SOL    HW175679   7.561   3.674   4.664  0.6226  0.6507 -1.7754
24746SOL    HW275680   7.487   3.788   4.732  0.5954 -0.0978 -0.5231
24747SOL     OW75681   7.613   4.499   7.912 -0.3548 -0.9154  0.0195
24747SOL    HW175682   7.637   4.432   7.849  2.4734  2.0239 -2.3534
24747SOL    HW275683   7.644   4.466   7.996  0.5329 -2.7283 -0.9838
24748SOL     OW75684   7.509   3.561   6.799 -0.3970  0.2891  0.0227
24748SOL    HW175685   7.502   3.490   6.736  1.4156  0.1907 -0.1073
24748SOL    HW275686   7.577   3.619   6.764 -0.3957  1.0108  1.1429
24749SOL     OW75687   7.211   5.029   7.091 -0.1165 -0.2380  0.2600
24749SOL    HW175688   7.164   4.963   7.143  0.7241 -0.3232  0.9356
24749SOL    HW275689   7.195   5.003   7.000  0.0188 -1.2575  0.5088
24750SOL     OW75690   2.312   4.049   6.313  0.1080  0.0321  0.3443
24750SOL    HW175691   2.259   3.988   6.261 -0.4937 -0.6516  1.7160
24750SOL    HW275692   2.394   4.002   6.329 -0.0999 -0.1595  0.8518
24751SOL     OW75693   6.883   5.513   7.293 -0.2705 -0.1714 -0.4019
24751SOL    HW175694   6.817   5.576   7.322 -0.3604  0.3714 -1.7175
24751SOL    HW275695   6.966   5.549   7.324 -0.5153 -0.5597  0.7573
24752SOL     OW75696   0.007   5.225   4.768  0.9855  0.5482  0.0017
24752SOL    HW175697  -0.028   5.165   4.834  1.5155  1.1113  0.8121
24752SOL    HW275698  -0.066   5.284   4.749  0.4612 -0.3255 -0.8006
24753SOL     OW75699   7.483   6.169   7.580  0.3557  0.0595  0.5060
24753SOL    HW175700   7.455   6.099   7.639  2.2000 -0.4031  0.9131
24753SOL    HW275701   7.518   6.236   7.638  0.1985  0.5691  0.0239
24754SOL     OW75702   0.732   5.604   5.014  0.0441  0.5014  0.1749
24754SOL    HW175703   0.717   5.685   4.965  1.4868  1.3074  1.0105
24754SOL    HW275704   0.688   5.618   5.098 -0.4823  0.0232 -0.0074
24755SOL     OW75705   7.328   4.811   4.904 -0.0867 -0.1783  0.1917
24755SOL    HW175706   7.382   4.889   4.917  0.0169 -0.1266 -0.4972
24755SOL    HW275707   7.319   4.804   4.809 -0.4445 -0.7687  0.2645
24756SOL     OW75708   0.601   2.753   6.992 -0.2320 -0.0171  0.6043
24756SOL    HW175709   0.605   2.841   7.030 -0.4825  0.0439  0.4941
24756SOL    HW275710   0.682   2.711   7.021  0.0657  0.3714  0.3508
24757SOL     OW75711   7.897   4.642   7.002 -0.0082  0.3287  0.2667
24757SOL    HW175712   7.926   4.563   7.048  0.7051 -0.0118 -0.7281
24757SOL    HW275713   7.863   4.610   6.918 -0.0255  1.0518 -0.0103
24758SOL     OW75714   1.277   5.512   6.149 -0.4119  0.3635  0.1571
24758SOL    HW175715   1.291   5.472   6.063 -0.9186 -0.3997  0.4145
24758SOL    HW275716   1.218   5.586   6.132  0.3063  0.8404 -0.2878
24759SOL     OW75717   7.994   2.943   6.231  0.2134  0.7580 -0.1563
24759SOL    HW175718   7.967   2.852   6.240  0.2894  0.7844  0.3989
24759SOL    HW275719   8.029   2.950   6.143 -3.5257  1.2203 -1.7741
24760SOL     OW75720   7.485   4.217   8.887  0.2627 -0.0981  0.8690
24760SOL    HW175721   7.477   4.295   8.832  1.3590 -0.9264 -0.5348
24760SOL    HW275722   7.431   4.151   8.843 -1.7378  0.1777  2.7620
24761SOL     OW75723   1.022   3.852   5.473  0.0328 -0.5311 -0.0687
24761SOL    HW175724   1.068   3.874   5.393 -1.8219  0.8326 -0.8409
24761SOL    HW275725   0.971   3.773   5.451 -1.1580  0.3435 -0.5674
24762SOL     OW75726   6.203   4.690   5.983 -0.1250 -0.4272 -0.3796
24762SOL    HW175727   6.164   4.604   5.998 -2.3483  0.4582 -0.6960
24762SOL    HW275728   6.219   4.725   6.070 -1.1908 -0.3334 -0.2160
24763SOL     OW75729   1.353   2.295   7.255  0.0202  0.6499 -0.9760
24763SOL    HW175730   1.317   2.222   7.205 -1.2049  0.7871 -0.3189
24763SOL    HW275731   1.289   2.311   7.324  2.1518 -0.2344  1.3341
24764SOL     OW75732   0.077   5.641   8.030 -0.0158  0.3621  0.1633
24764SOL    HW175733  -0.016   5.663   8.025 -0.0746  0.4605  1.3308
24764SOL    HW275734   0.121   5.726   8.029  0.0804  0.3063 -0.6284
24765SOL     OW75735   0.142   2.409   7.795  0.3322  0.1075  0.1371
24765SOL    HW175736   0.221   2.380   7.749  0.3219  1.7626 -0.9991
24765SOL    HW275737   0.070   2.380   7.740  0.1426 -0.9505  0.9136
24766SOL     OW75738   1.014   4.940   6.890 -0.4911 -0.0483 -0.2060
24766SOL    HW175739   1.035   4.847   6.893 -1.7018 -0.3180  1.0897
24766SOL    HW275740   1.085   4.979   6.838  1.8723 -1.1910  1.9497
24767SOL     OW75741   7.680   4.361   8.132  0.0095  0.0643 -0.1336
24767SOL    HW175742   7.646   4.275   8.155 -0.8610  0.3425 -0.3458
24767SOL    HW275743   7.742   4.382   8.202  2.2099 -1.8243 -1.3577
24768SOL     OW75744   1.065   3.590   5.002  0.1470 -0.1121 -0.1590
24768SOL    HW175745   0.994   3.635   5.047  0.4229  0.0755  0.0898
24768SOL    HW275746   1.143   3.643   5.020  0.3064 -0.1733 -0.6401
24769SOL     OW75747   7.727   3.444   7.779  0.4153 -0.5839  0.0178
24769SOL    HW175748   7.729   3.531   7.739  0.7816  0.7132  2.5857
24769SOL    HW275749   7.809   3.402   7.752  0.8417  0.3962 -0.2371
24770SOL     OW75750   6.809   4.621   7.607  0.2881 -0.3882  0.0029
24770SOL    HW175751   6.780   4.578   7.688 -0.2223  0.1318  0.1023
24770SOL    HW275752   6.831   4.710   7.633 -0.3085 -0.0868 -0.5064
24771SOL     OW75753   1.037   2.907   5.848  0.6740  0.1377  0.2594
24771SOL    HW175754   1.097   2.838   5.818 -0.7216 -0.3994 -1.4498
24771SOL    HW275755   0.963   2.859   5.887 -0.0858  0.6558 -0.5091
24772SOL     OW75756   7.314   5.525   9.692 -0.2541  0.1085  0.5788
24772SOL    HW175757   7.229   5.513   9.735  0.0498  0.1079  1.1891
24772SOL    HW275758   7.347   5.608   9.728  0.3609 -0.2929  0.9602
24773SOL     OW75759   7.901   4.197   8.659 -0.1587  0.6955 -0.6551
24773SOL    HW175760   7.890   4.245   8.741  0.1601 -0.3102  0.0069
24773SOL    HW275761   7.812   4.171   8.634 -0.1846  0.2787 -0.1544
24774SOL     OW75762   0.516   6.759   7.570  0.3568  0.1776  0.5469
24774SOL    HW175763   0.478   6.671   7.575  2.2784 -0.8328 -1.4930
24774SOL    HW275764   0.444   6.814   7.538 -0.1558 -1.1751 -0.7379
24775SOL     OW75765   7.677   5.096   8.559 -0.3192  0.0838 -0.3911
24775SOL    HW175766   7.657   5.008   8.590  0.8011 -0.5268 -1.3474
24775SOL    HW275767   7.737   5.132   8.625 -0.8754  0.1861  0.0630
24776SOL     OW75768   1.565   6.186   9.341  0.2678  0.2737  0.5122
24776SOL    HW175769   1.534   6.207   9.429 -2.4346  0.1301 -0.3184
24776SOL    HW275770   1.513   6.241   9.283  1.5119 -0.1195 -1.0662
24777SOL     OW75771   5.031   6.151   7.802  0.2715 -0.1140  0.4651
24777SOL    HW175772   5.121   6.169   7.776  0.2787  0.5428  0.9260
24777SOL    HW275773   5.009   6.070   7.756 -0.1128  1.5210 -2.5236
24778SOL     OW75774   6.696   5.624   8.205 -0.1875 -0.3105 -0.2265
24778SOL    HW175775   6.648   5.705   8.222 -1.6757 -0.8783 -1.5170
24778SOL    HW275776   6.752   5.645   8.131  0.3123 -0.1400  0.1924
24779SOL     OW75777   0.516   5.417   9.180 -0.0905  0.6562  0.3574
24779SOL    HW175778   0.474   5.401   9.265  1.4216  0.2330  1.0739
24779SOL    HW275779   0.529   5.330   9.143 -0.5218  0.8268 -0.2145
24780SOL     OW75780   6.838   4.774   9.031  0.0132 -0.2284 -0.3016
24780SOL    HW175781   6.928   4.747   9.014  0.2706  0.9296 -0.9054
24780SOL    HW275782   6.827   4.762   9.125  0.8796 -0.1784 -0.1849
24781SOL     OW75783   7.582   4.307   8.445 -0.3234 -0.3424 -0.4814
24781SOL    HW175784   7.521   4.382   8.439 -1.1622 -1.1131 -2.6129
24781SOL    HW275785   7.667   4.343   8.420 -0.2070  0.3847  0.8702
24782SOL     OW75786   6.689   5.358   8.498 -0.0356  0.3719  0.4223
24782SOL    HW175787   6.630   5.415   8.548 -2.5129 -1.1969 -0.5004
24782SOL    HW275788   6.673   5.383   8.407  1.2822  0.3368  0.1574
24783SOL     OW75789   7.758   2.824   7.621 -0.1940  0.3949 -0.4608
24783SOL    HW175790   7.824   2.768   7.579 -0.5032  0.3713 -0.9170
24783SOL    HW275791   7.788   2.913   7.603 -0.7315  0.4032 -1.4167
24784SOL     OW75792   7.000   6.504   7.785  0.7265  0.2540 -0.2539
24784SOL    HW175793   6.973   6.500   7.877  1.5391  3.2957  0.2355
24784SOL    HW275794   7.084   6.458   7.783 -0.1105 -1.3433  0.1197
24785SOL     OW75795   0.829   4.282   9.529  0.3442 -0.2369  0.7846
24785SOL    HW175796   0.796   4.280   9.439  2.5020 -1.7796 -0.0534
24785SOL    HW275797   0.807   4.196   9.564  0.8660 -0.2027  1.2033
24786SOL     OW75798   6.728   5.876   7.123  0.0185  0.2410  0.4813
24786SOL    HW175799   6.651   5.822   7.144  0.4698  0.1264  1.9343
24786SOL    HW275800   6.780   5.875   7.203  0.8934  1.4192 -0.0569
24787SOL     OW75801   6.717   3.850   7.616  0.3972 -0.0172 -0.0547
24787SOL    HW175802   6.680   3.856   7.528 -0.8449  1.6675  0.5504
24787SOL    HW275803   6.648   3.807   7.668 -0.3891  2.2087  0.8478
24788SOL     OW75804   7.124   5.251  10.420  0.0508  0.0927 -0.3227
24788SOL    HW175805   7.042   5.298  10.409 -1.6319 -2.7847 -0.9390
24788SOL    HW275806   7.099   5.160  10.431  3.1106 -0.7285  1.0266
24789SOL     OW75807   7.783   3.951   8.037  0.1381  0.2328 -0.2108
24789SOL    HW175808   7.740   3.972   8.120 -1.2916  0.0194 -0.8697
24789SOL    HW275809   7.846   4.022   8.025 -0.3417  0.8107  0.5696
24790SOL     OW75810   7.555   4.616   9.787  0.7821  0.1505  0.5072
24790SOL    HW175811   7.633   4.568   9.816  0.9903  0.1718 -0.0193
24790SOL    HW275812   7.484   4.580   9.841  0.8733 -1.0079 -0.1282
24791SOL     OW75813   0.315   2.460   9.739 -0.2365  0.5564  0.5884
24791SOL    HW175814   0.340   2.369   9.727  2.5618  1.0321  1.8980
24791SOL    HW275815   0.344   2.505   9.660 -0.6725  0.4931  0.3883
24792SOL     OW75816   1.361   4.369   7.731 -0.0179  0.3745  0.1309
24792SOL    HW175817   1.357   4.463   7.753 -0.8032  0.3564  0.1031
24792SOL    HW275818   1.410   4.330   7.803 -0.5964  0.6588  0.6891
24793SOL     OW75819   0.891   3.778   7.335 -0.7215  0.1329 -0.0197
24793SOL    HW175820   0.814   3.828   7.363 -0.6735 -1.4251  3.3441
24793SOL    HW275821   0.858   3.690   7.321  0.2893 -0.3992  0.7884
24794SOL     OW75822   0.991   4.873   7.726  0.0967 -0.2633  0.3287
24794SOL    HW175823   0.897   4.869   7.707 -0.0096  0.7597  0.5551
24794SOL    HW275824   1.030   4.807   7.669 -0.8662 -1.4458  1.0128
24795SOL     OW75825   0.047   3.970   8.674 -0.2259 -0.3861 -0.1602
24795SOL    HW175826   0.004   3.927   8.748 -1.3396 -0.5342 -0.8713
24795SOL    HW275827  -0.017   4.033   8.642  0.2136 -0.3763 -1.0512
24796SOL     OW75828   0.353   3.399   8.713 -0.7540 -0.2035  0.3352
24796SOL    HW175829   0.353   3.475   8.655  2.1852  1.1107  1.8282
24796SOL    HW275830   0.367   3.324   8.656 -1.5320  0.6059 -0.9591
24797SOL     OW75831   7.423   2.984   8.960  0.2136 -1.1132 -0.3206
24797SOL    HW175832   7.420   2.992   9.055  0.6656 -1.4109 -0.2801
24797SOL    HW275833   7.515   2.967   8.940  0.5469  1.1952 -0.9986
24798SOL     OW75834   0.713   5.868   8.936  0.1614  0.1924  0.0229
24798SOL    HW175835   0.722   5.780   8.972 -0.8678  0.7273  1.7215
24798SOL    HW275836   0.626   5.868   8.895  0.4206  0.2423 -0.5366
24799SOL     OW75837   0.026   4.068   7.749  0.0566  0.4518 -0.2387
24799SOL    HW175838  -0.042   4.044   7.686  1.6138 -0.7440 -1.5741
24799SOL    HW275839   0.011   4.161   7.766 -1.8526  0.2331 -0.5087
24800SOL     OW75840   1.593   3.928   8.097  0.3982  0.4910  0.6029
24800SOL    HW175841   1.668   3.929   8.037 -0.2818 -0.3060 -0.2980
24800SOL    HW275842   1.584   3.836   8.123 -1.4212  0.2012 -0.8470
24801SOL     OW75843   4.886   4.448   9.903  0.3640  0.4275  0.3428
24801SOL    HW175844   4.948   4.457   9.975  0.4512  1.3519  0.1553
24801SOL    HW275845   4.897   4.357   9.874  1.4093  0.4866  0.5067
24802SOL     OW75846   0.363   4.340   8.479  0.1311 -0.1461 -0.1091
24802SOL    HW175847   0.325   4.283   8.547  1.2963 -0.6216  0.1663
24802SOL    HW275848   0.307   4.418   8.479  0.0364 -0.1956  1.3103
24803SOL     OW75849   0.354   4.463  10.359 -0.0764 -0.0808  0.1376
24803SOL    HW175850   0.347   4.510  10.276 -1.0911 -0.6816 -0.1381
24803SOL    HW275851   0.445   4.474  10.386  0.5102 -0.6462 -1.5168
24804SOL     OW75852   0.701   5.419   7.362  0.1803  0.6052 -0.1761
24804SOL    HW175853   0.726   5.389   7.450 -0.3791  1.4846  0.2952
24804SOL    HW275854   0.783   5.453   7.325  0.0588  1.9923  0.7493
24805SOL     OW75855   6.581   4.336   9.381 -0.4954  0.3058  0.1611
24805SOL    HW175856   6.634   4.279   9.326 -0.6083  0.6084 -0.2689
24805SOL    HW275857   6.644   4.390   9.428 -0.4129  0.5554 -0.2299
24806SOL     OW75858   6.666   5.453  10.061 -0.2085 -0.0410  0.4117
24806SOL    HW175859   6.627   5.391  10.122  2.1891 -1.4822  0.6053
24806SOL    HW275860   6.682   5.531  10.114  1.7541 -1.2368  1.7361
24807SOL     OW75861   7.121   4.242   9.208  0.1327 -0.4567  0.5668
24807SOL    HW175862   7.175   4.186   9.153 -0.5294 -0.3293 -0.2377
24807SOL    HW275863   7.154   4.228   9.297  1.4941 -0.3540  0.0996
24808SOL     OW75864   2.116   5.257   9.141  0.6232 -0.5313  0.3760
24808SOL    HW175865   2.104   5.275   9.048 -0.5029 -0.8686  0.4357
24808SOL    HW275866   2.113   5.161   9.148 -2.0358 -0.5042  1.0204
24809SOL     OW75867   0.369   3.017   7.367 -0.3275 -0.0380 -0.4798
24809SOL    HW175868   0.329   3.047   7.286  0.3386  0.1870 -0.7351
24809SOL    HW275869   0.437   3.081   7.386 -1.8859  1.1505  1.4579
24810SOL     OW75870   6.602   4.985   6.637 -0.4992  0.1100 -0.0932
24810SOL    HW175871   6.530   4.922   6.637  0.7765 -1.4130  0.7893
24810SOL    HW275872   6.612   5.010   6.729 -0.2481  0.7457 -0.2867
24811SOL     OW75873   0.460   3.375   7.922  0.1493  0.0268 -0.3133
24811SOL    HW175874   0.515   3.303   7.952 -0.9460 -0.3884  0.8041
24811SOL    HW275875   0.456   3.435   7.996 -1.0261 -0.0511 -0.2862
24812SOL     OW75876   7.693   4.441  10.132  0.0788  0.0256 -0.2045
24812SOL    HW175877   7.604   4.414  10.110  0.1071 -0.4654  0.2558
24812SOL    HW275878   7.682   4.519  10.185 -0.0122  0.8642 -1.4127
24813SOL     OW75879   0.098   4.193   9.620  0.5235 -0.1021  0.4051
24813SOL    HW175880   0.032   4.238   9.566 -1.0573 -0.0085  2.3189
24813SOL    HW275881   0.062   4.105   9.632  0.4702  0.1076  1.8895
24814SOL     OW75882   0.075   4.311   8.863 -0.5181 -0.2227 -0.4997
24814SOL    HW175883   0.026   4.322   8.944 -0.0187  0.1502 -0.2418
24814SOL    HW275884   0.141   4.381   8.864 -0.0297 -0.6616 -0.8698
24815SOL     OW75885   6.854   4.985   9.985 -0.0787  0.4161 -0.3982
24815SOL    HW175886   6.916   4.954  10.051  1.5518  0.4137 -1.8761
24815SOL    HW275887   6.791   4.914   9.976  0.5166 -0.1847  0.0996
24816SOL     OW75888   1.618   4.001   8.890 -0.2594 -0.6423 -0.1766
24816SOL    HW175889   1.591   3.913   8.915 -0.2965 -0.6890 -0.3830
24816SOL    HW275890   1.697   3.989   8.837 -0.1119 -0.5355  0.0190
24817SOL     OW75891   7.943   3.344   7.429 -0.4488  0.0507 -0.0588
24817SOL    HW175892   7.974   3.279   7.492  1.5058  0.2706 -0.7034
24817SOL    HW275893   7.849   3.350   7.444 -0.4131 -1.7033  1.1330
24818SOL     OW75894   5.767   5.325   9.034  0.2093 -0.2266  0.0560
24818SOL    HW175895   5.740   5.407   9.074  1.8299  0.8714 -0.9853
24818SOL    HW275896   5.752   5.259   9.102 -0.3806  1.0342  1.1895
24819SOL     OW75897   6.818   6.174  10.003 -0.1284  0.0153  0.4020
24819SOL    HW175898   6.864   6.113   9.947  1.2930  1.7417 -0.4048
24819SOL    HW275899   6.736   6.193   9.956  0.3118  0.2048 -0.3024
24820SOL     OW75900   1.277   3.533   8.922  0.6734 -0.4876  1.0518
24820SOL    HW175901   1.231   3.521   8.839  0.0002 -1.1977  1.5110
24820SOL    HW275902   1.209   3.559   8.984  1.2337  0.3885  1.3047
24821SOL     OW75903   7.559   4.419   9.325  0.0515 -0.0387  0.1240
24821SOL    HW175904   7.610   4.486   9.281 -1.6994  0.8175 -0.6945
24821SOL    HW275905   7.467   4.445   9.312 -0.7027 -2.4635 -0.0873
24822SOL     OW75906   7.620   3.708   6.500 -0.1307  0.0785  0.0376
24822SOL    HW175907   7.569   3.785   6.522  0.1645  0.1352  0.5479
24822SOL    HW275908   7.694   3.710   6.561  0.6073  0.1207 -0.8237
24823SOL     OW75909   0.054   5.526   9.546  0.2021 -0.0224  0.5140
24823SOL    HW175910   0.136   5.575   9.553  0.9628 -1.3018  0.8492
24823SOL    HW275911   0.067   5.467   9.472 -0.7669  0.3806 -0.0014
24824SOL     OW75912   7.303   4.468   8.907  0.2304 -0.5420  0.3526
24824SOL    HW175913   7.322   4.438   8.818 -0.2964 -1.3314  0.4992
24824SOL    HW275914   7.338   4.557   8.910  0.0307 -0.4147 -0.7257
24825SOL     OW75915   7.542   2.512   8.474 -0.6680  0.1622  0.1459
24825SOL    HW175916   7.452   2.528   8.501  0.0152 -0.0906  2.8285
24825SOL    HW275917   7.550   2.417   8.473 -0.5324  0.1748 -0.5514
24826SOL     OW75918   0.004   7.263   8.721 -0.0382  0.3017  0.1322
24826SOL    HW175919  -0.078   7.286   8.677 -0.2420  1.5072  1.1054
24826SOL    HW275920   0.066   7.248   8.649 -0.6388  1.1976 -0.5937
24827SOL     OW75921   7.921   6.104  10.486  0.2323 -0.0799 -0.4792
24827SOL    HW175922   7.916   6.099  10.581  0.0912 -0.1389 -0.4892
24827SOL    HW275923   7.927   6.198  10.467  1.2711 -0.1141 -0.3666
24828SOL     OW75924   0.648   7.342   6.568  0.1323 -0.1897  0.0975
24828SOL    HW175925   0.688   7.269   6.615 -0.0639 -0.7462 -0.5986
24828SOL    HW275926   0.685   7.420   6.610  1.1374 -0.6913  0.1686
24829SOL     OW75927   7.956   4.172   8.060  0.2351 -0.0450  0.7935
24829SOL    HW175928   8.045   4.197   8.086 -0.1351  0.3354  1.7287
24829SOL    HW275929   7.936   4.228   7.986  1.1497 -0.8457 -0.1033
24830SOL     OW75930   7.476   4.941  10.196  0.9661  0.3449 -0.7169
24830SOL    HW175931   7.399   4.977  10.151  0.4855  1.2610  0.7714
24830SOL    HW275932   7.547   4.950  10.133  0.3296  1.6740 -1.2945
24831SOL     OW75933   7.255   5.334   7.179  0.5399  0.3771 -0.4278
24831SOL    HW175934   7.252   5.238   7.189  1.3304  0.4043  0.1194
24831SOL    HW275935   7.331   5.350   7.124  1.0550  0.7540  0.3867
24832SOL     OW75936   0.931   3.423   9.269 -0.3328 -0.2750 -0.3524
24832SOL    HW175937   0.859   3.459   9.321  0.3478  0.8300 -0.1496
24832SOL    HW275938   1.009   3.466   9.303  0.1136  0.7642 -2.5350
24833SOL     OW75939   7.095   6.044  10.300 -0.1021  0.0182 -0.2014
24833SOL    HW175940   7.169   6.020  10.356  1.1928  2.3281 -0.7667
24833SOL    HW275941   7.018   6.031  10.355  0.9142 -0.2830  1.2162
24834SOL     OW75942   6.941   3.852  10.105 -0.0604  0.2398  0.3338
24834SOL    HW175943   6.946   3.830  10.012 -0.3555 -2.3933  0.8688
24834SOL    HW275944   6.988   3.935  10.112 -0.4184  0.7555 -2.2138
24835SOL     OW75945   7.251   5.697  11.048 -0.2115  0.2260 -0.5018
24835SOL    HW175946   7.196   5.743  11.111  0.2778  0.8017 -0.4883
24835SOL    HW275947   7.247   5.751  10.969 -2.1813 -1.3405 -1.5836
24836SOL     OW75948   0.425   4.679   0.565  0.9583 -0.1051 -0.2897
24836SOL    HW175949   0.497   4.621   0.541  1.6476 -0.2194  1.8090
24836SOL    HW275950   0.350   4.621   0.576  0.9002 -0.1812 -1.0348
24837SOL     OW75951   7.050   6.067  10.628  0.1814 -0.1295  0.1839
24837SOL    HW175952   6.977   6.040  10.684 -0.2404  1.6452  0.5369
24837SOL    HW275953   7.068   5.990  10.574 -2.7042 -0.2816 -0.7420
24838SOL     OW75954   6.521   5.750  11.895  0.4626 -0.4780 -0.0854
24838SOL    HW175955   6.567   5.816  11.948  0.3878 -0.2503 -0.3014
24838SOL    HW275956   6.434   5.745  11.935  1.1438 -2.0292  1.2844
24839SOL     OW75957   6.667   5.659  10.581 -0.2286  0.5147  0.1338
24839SOL    HW175958   6.727   5.671  10.654 -0.1015  1.8208 -0.1588
24839SOL    HW275959   6.672   5.565  10.561  0.5629  0.3372  1.0803
24840SOL     OW75960   0.102   6.009  10.314  0.1210  0.1887  0.0290
24840SOL    HW175961   0.048   6.024  10.391 -0.4014 -1.8600  0.1173
24840SOL    HW275962   0.117   6.096  10.277  1.6178  1.4551  3.2232
24841SOL     OW75963   6.250   5.662  10.845 -0.3438  0.1611  0.2291
24841SOL    HW175964   6.216   5.627  10.762 -0.0140  2.2650 -0.8659
24841SOL    HW275965   6.311   5.595  10.875 -1.8384 -1.5075 -0.2297
24842SOL     OW75966   6.521   4.118  11.063  0.5411 -0.2983 -0.0355
24842SOL    HW175967   6.555   4.205  11.082  0.2801 -0.3161  0.5331
24842SOL    HW275968   6.585   4.058  11.100 -0.4681 -0.3298  1.7545
24843SOL     OW75969   0.649   6.281  10.396 -0.3581 -0.0212 -0.0484
24843SOL    HW175970   0.593   6.340  10.346 -1.2716 -0.9280 -0.1265
24843SOL    HW275971   0.590   6.211  10.425  1.2898 -2.9170 -3.0290
24844SOL     OW75972   6.389   4.845  11.857 -0.6532  0.0206 -0.7595
24844SOL    HW175973   6.315   4.877  11.909  0.9005  2.5441  0.0649
24844SOL    HW275974   6.467   4.878  11.902  1.1159 -3.1201 -1.1921
24845SOL     OW75975   1.003   4.434   9.661 -0.0911  0.0943 -0.9418
24845SOL    HW175976   1.022   4.505   9.599  0.1846  0.3817 -0.5321
24845SOL    HW275977   0.946   4.374   9.612  0.1240  0.3160 -1.4752
24846SOL     OW75978   0.334   4.631  10.122 -0.1129 -0.2239 -0.0809
24846SOL    HW175979   0.308   4.579  10.046 -1.0831 -0.4171  0.3768
24846SOL    HW275980   0.371   4.711  10.084  0.4570 -0.7950 -0.7703
24847SOL     OW75981   5.237   6.039  11.315 -0.4248 -0.3416 -0.1164
24847SOL    HW175982   5.239   6.007  11.405 -2.7418 -1.2238 -0.3010
24847SOL    HW275983   5.253   6.133  11.323  0.4593 -0.5663  1.0833
24848SOL     OW75984   1.025   3.924   9.850  0.0320  0.0958 -0.3181
24848SOL    HW175985   0.995   4.010   9.878 -0.0374  0.4474 -1.4281
24848SOL    HW275986   1.114   3.916   9.885  0.5177  1.1505 -1.2595
24849SOL     OW75987   7.120   6.518  12.269  0.1496 -0.1659 -0.7648
24849SOL    HW175988   7.050   6.573  12.304  0.7966 -0.5344  1.2436
24849SOL    HW275989   7.079   6.471  12.196 -0.8148  1.8484 -1.6175
24850SOL     OW75990   5.845   4.648  11.777  0.1609 -0.4116  0.0962
24850SOL    HW175991   5.753   4.667  11.755 -0.3432 -2.3497  0.3444
24850SOL    HW275992   5.886   4.734  11.782 -1.8392  0.5802  0.8749
24851SOL     OW75993   7.987   6.197   0.389  0.3625 -0.1316 -0.2680
24851SOL    HW175994   7.904   6.155   0.366  0.2271 -0.7385  1.2136
24851SOL    HW275995   7.990   6.276   0.335 -1.9415  0.7455  0.7271
24852SOL     OW75996   7.269   5.408  11.525  0.2471 -0.0582  0.1624
24852SOL    HW175997   7.241   5.433  11.437  1.3152  0.0593 -0.1473
24852SOL    HW275998   7.264   5.312  11.524  0.4450 -0.0687 -0.0952
24853SOL     OW75999   7.000   6.443  10.992 -0.3018  0.5325 -0.0574
24853SOL    HW176000   7.056   6.485  11.057 -0.8712 -1.5615  1.9037
24853SOL    HW276001   7.056   6.377  10.951  0.3626  2.4635 -2.5952
24854SOL     OW76002   0.542   5.500  10.064 -0.2647 -0.2303  0.3638
24854SOL    HW176003   0.576   5.561   9.998 -2.1558  2.0380  1.3585
24854SOL    HW276004   0.609   5.500  10.133  0.4668 -0.5269 -0.3273
24855SOL     OW76005   7.236   5.107   9.759 -0.3885 -0.2819  0.4183
24855SOL    HW176006   7.313   5.156   9.729 -1.1057  1.6574  1.6243
24855SOL    HW276007   7.273   5.033   9.807  0.7017 -0.5964 -0.8252
24856SOL     OW76008   7.716   3.579  10.818 -0.2445 -0.2682  0.2466
24856SOL    HW176009   7.635   3.626  10.799  0.2410 -0.0686 -1.5679
24856SOL    HW276010   7.701   3.492  10.780  1.3303  0.6122 -2.6952
24857SOL     OW76011   7.950   3.942   8.376 -0.1280 -0.3539 -0.0566
24857SOL    HW176012   8.003   3.876   8.331 -0.3734 -0.0289 -0.8342
24857SOL    HW276013   7.860   3.913   8.363 -0.1538 -1.2211  1.7605
24858SOL     OW76014   0.765   7.412  10.669  0.1982  0.0320 -0.0934
24858SOL    HW176015   0.732   7.476  10.606 -1.2156  0.3718  0.9478
24858SOL    HW276016   0.759   7.328  10.623  0.2710  0.4065 -0.7990
24859SOL     OW76017   7.105   5.105  12.210 -0.4527 -0.6010  0.1603
24859SOL    HW176018   7.079   5.186  12.166 -1.7342 -0.2864  1.4233
24859SOL    HW276019   7.200   5.105  12.205 -0.3695  1.3907  0.8087
24860SOL     OW76020   7.798   5.174   9.482  0.1434  0.0245 -0.0572
24860SOL    HW176021   7.711   5.136   9.469  0.5047 -0.5478 -0.8810
24860SOL    HW276022   7.855   5.099   9.495  0.7846  0.2842 -1.1969
24861SOL     OW76023   6.475   6.298  11.840  0.2941 -0.2780 -0.0328
24861SOL    HW176024   6.422   6.354  11.897  1.2204  0.6983 -0.0827
24861SOL    HW276025   6.502   6.356  11.768  0.6189 -1.0082 -0.5125
24862SOL     OW76026   6.433   6.898   9.582  0.2139 -0.5308 -0.3681
24862SOL    HW176027   6.345   6.921   9.553 -0.5203 -3.6312 -1.0124
24862SOL    HW276028   6.489   6.967   9.546 -1.8120  1.0384 -0.7071
24863SOL     OW76029   7.585   5.493   9.936 -0.7440  0.7124 -0.2688
24863SOL    HW176030   7.603   5.537   9.853 -1.4681  1.0965 -0.2248
24863SOL    HW276031   7.537   5.558   9.988  0.9999  1.0286  1.0372
24864SOL     OW76032   7.358   3.160   8.248 -0.0883 -0.0446 -0.6842
24864SOL    HW176033   7.369   3.097   8.176  0.4882  1.1034 -1.6342
24864SOL    HW276034   7.267   3.190   8.240  0.1319  0.4668 -1.2549
24865SOL     OW76035   6.902   5.087  11.854 -0.2010 -0.1462  0.2970
24865SOL    HW176036   6.978   5.080  11.797 -0.1041 -0.8229  0.4961
24865SOL    HW276037   6.899   5.179  11.881 -0.6099  0.3412 -1.2876
24866SOL     OW76038   0.319   2.753   9.580  0.0605  1.1864  0.1749
24866SOL    HW176039   0.375   2.676   9.582 -1.5896 -0.0604  1.7526
24866SOL    HW276040   0.253   2.732   9.514  0.8141  2.2264 -0.9602
24867SOL     OW76041   7.055   2.929  11.890 -0.0663 -0.1822  0.1148
24867SOL    HW176042   7.045   2.895  11.801  0.6959  0.3564 -0.1849
24867SOL    HW276043   7.001   2.871  11.944 -1.3509  0.0765 -0.8304
24868SOL     OW76044   6.839   6.397  12.315 -0.3453 -0.1755  0.2932
24868SOL    HW176045   6.806   6.315  12.350 -1.1470 -0.1361 -0.3375
24868SOL    HW276046   6.813   6.396  12.223 -2.2497  1.7014  0.7407
24869SOL     OW76047   7.050   3.337   9.948  0.6656 -0.2087 -0.3210
24869SOL    HW176048   7.087   3.425   9.946  1.4539 -0.5470 -1.1281
24869SOL    HW276049   6.963   3.349   9.987  2.0019  0.4382  2.7501
24870SOL     OW76050   5.905   3.595  10.448 -0.3505 -0.0881 -0.1128
24870SOL    HW176051   5.934   3.681  10.478 -0.6531  0.6066 -1.7340
24870SOL    HW276052   5.809   3.600  10.449 -0.3695 -0.3605 -0.3219
24871SOL     OW76053   7.239   2.147  10.925  0.0656 -0.0750  0.0587
24871SOL    HW176054   7.170   2.106  10.872 -0.7337  1.6463 -0.3025
24871SOL    HW276055   7.235   2.102  11.009  0.0881 -1.5806 -0.7113
24872SOL     OW76056   0.675   3.319   0.273  0.5483 -0.4655  0.3237
24872SOL    HW176057   0.675   3.329   0.368 -0.5052  1.2501  0.1793
24872SOL    HW276058   0.585   3.338   0.246  1.1439  0.4874 -1.1413
24873SOL     OW76059   0.703   4.583   8.949  0.4940  0.0088  0.1011
24873SOL    HW176060   0.634   4.519   8.960 -0.2673  0.9504  1.0095
24873SOL    HW276061   0.681   4.628   8.867 -0.2304  0.5805  0.5913
24874SOL     OW76062   5.481   4.133  11.087  0.0972 -0.4021  0.1186
24874SOL    HW176063   5.410   4.171  11.035  1.7099 -1.0999 -2.8296
24874SOL    HW276064   5.530   4.209  11.120  0.6136  0.1511 -1.8064
24875SOL     OW76065   6.455   5.015  10.016 -0.4066 -0.1964 -0.0910
24875SOL    HW176066   6.471   5.074   9.942 -0.1339  0.2363  0.3075
24875SOL    HW276067   6.511   4.939   9.998  0.7147  0.5038  0.3589
24876SOL     OW76068   4.887   5.940  10.614  0.2429 -0.1807 -0.3278
24876SOL    HW176069   4.933   5.995  10.678 -0.3762  0.3375 -0.3169
24876SOL    HW276070   4.873   5.997  10.538  0.0463 -0.4736 -0.5149
24877SOL     OW76071   7.605   6.027   9.797  0.4539 -0.3748  0.0434
24877SOL    HW176072   7.598   6.121   9.778  1.7972 -0.3517 -0.4888
24877SOL    HW276073   7.689   6.001   9.759  0.4114 -1.6633  0.7509
24878SOL     OW76074   0.680   3.415  12.357 -0.0544  0.0286  0.0717
24878SOL    HW176075   0.729   3.465  12.422  1.4167  2.2680 -2.4954
24878SOL    HW276076   0.600   3.466  12.343 -0.4838 -0.5756  0.2800
24879SOL     OW76077   1.406   3.055   7.751  0.1912 -0.1196 -0.2102
24879SOL    HW176078   1.460   2.977   7.761  1.3817  0.8266  1.1313
24879SOL    HW276079   1.407   3.096   7.838 -2.0377  0.3623 -0.3528
24880SOL     OW76080   6.762   4.485   9.577 -0.4092  0.0495  0.1800
24880SOL    HW176081   6.812   4.557   9.615 -0.0384 -0.0286 -0.1535
24880SOL    HW276082   6.677   4.488   9.623  0.5347 -0.9779  2.0943
24881SOL     OW76083   0.449   4.900  10.244 -0.0646  0.0025 -0.1222
24881SOL    HW176084   0.514   4.970  10.252 -0.7678  0.5538  0.8880
24881SOL    HW276085   0.390   4.929  10.175  0.1546 -0.0240 -0.3236
24882SOL     OW76086   7.218   6.508  10.616 -0.1093 -0.3360 -0.2187
24882SOL    HW176087   7.215   6.483  10.524  0.9551  1.4423 -0.7872
24882SOL    HW276088   7.303   6.479  10.647  0.0911  0.2735 -0.1842
24883SOL     OW76089   1.275   5.034  10.079 -0.3750  0.6256 -0.0897
24883SOL    HW176090   1.335   5.005  10.011  1.0054  2.1382  0.4162
24883SOL    HW276091   1.191   5.047  10.034  0.3535  1.0018 -1.3781
24884SOL     OW76092   0.180   6.244  11.782 -0.2761  0.0114  0.0267
24884SOL    HW176093   0.171   6.317  11.722 -0.0351  0.4016  0.4549
24884SOL    HW276094   0.255   6.194  11.750 -1.4397 -1.0021 -1.2324
24885SOL     OW76095   7.094   4.712   9.017 -0.0708  0.0650 -0.0937
24885SOL    HW176096   7.163   4.658   9.053 -0.4509  0.3025  1.0545
24885SOL    HW276097   7.124   4.802   9.032  1.3154  0.2720 -3.4501
24886SOL     OW76098   7.095   4.971  10.563 -1.0938 -0.2159 -0.1739
24886SOL    HW176099   7.074   5.027  10.637 -2.9506  0.9947 -1.5172
24886SOL    HW276100   7.059   4.885  10.586 -0.4130 -0.2387  0.8667
24887SOL     OW76101   6.766   5.481   9.482  0.2563  0.2096 -0.1996
24887SOL    HW176102   6.824   5.406   9.487  0.4641  0.3310 -0.7257
24887SOL    HW276103   6.824   5.557   9.488  0.0908  0.3293 -0.1084
24888SOL     OW76104   0.467   6.152   9.923  0.5523 -0.3305  0.5516
24888SOL    HW176105   0.535   6.215   9.945 -0.4311  0.9177  0.1042
24888SOL    HW276106   0.419   6.138  10.005 -0.2531  0.8011  0.2967
24889SOL     OW76107   7.386   7.291  11.313  0.0669 -0.1396  0.1039
24889SOL    HW176108   7.374   7.382  11.339  0.0062  0.3840 -1.5978
24889SOL    HW276109   7.458   7.260  11.367  0.8903  1.3040 -0.0948
24890SOL     OW76110   0.037   3.478   8.482 -0.3464 -0.5701 -0.0502
24890SOL    HW176111  -0.015   3.445   8.554 -0.0480  0.0375  0.4501
24890SOL    HW276112   0.076   3.559   8.515 -0.5008 -0.0845 -1.0103
24891SOL     OW76113   0.927   3.420   7.834  0.1540  0.2859 -0.1080
24891SOL    HW176114   0.917   3.464   7.750  3.2575  0.7632 -0.3511
24891SOL    HW276115   0.871   3.469   7.894 -1.3419  0.5530 -1.6556
24892SOL     OW76116   0.347   6.234  10.217  0.5701  0.1464 -0.0004
24892SOL    HW176117   0.396   6.170  10.269 -1.7939 -1.5130  0.3528
24892SOL    HW276118   0.277   6.264  10.275 -1.0477 -0.3945 -1.5686
24893SOL     OW76119   7.091   4.017  10.895 -0.2988  0.2412 -0.1250
24893SOL    HW176120   7.083   4.107  10.864  0.9653  0.2640 -0.4541
24893SOL    HW276121   7.047   4.016  10.980  0.0935  1.2897  0.1025
24894SOL     OW76122   0.302   3.894   9.995  0.1463  0.2852 -0.1355
24894SOL    HW176123   0.296   3.849  10.080 -0.5883  0.3576 -0.1377
24894SOL    HW276124   0.392   3.925   9.991  0.0988  0.5846  0.7801
24895SOL     OW76125   7.817   5.537  11.438 -0.0368  0.8145 -0.0160
24895SOL    HW176126   7.734   5.505  11.473  0.3630 -1.6546 -1.1435
24895SOL    HW276127   7.810   5.524  11.343  2.0472 -0.6822 -0.0439
24896SOL     OW76128   0.289   6.136  11.349 -0.0819  0.0067  0.1282
24896SOL    HW176129   0.333   6.067  11.399 -1.9856 -0.6114  1.0625
24896SOL    HW276130   0.198   6.130  11.377 -0.9759  0.5457 -2.4760
24897SOL     OW76131   6.588   4.003  10.823  0.1043  0.2191  0.2719
24897SOL    HW176132   6.682   3.990  10.816  0.2181 -0.2721  2.0894
24897SOL    HW276133   6.577   4.058  10.900 -1.0965  0.3455  0.0354
24898SOL     OW76134   0.581   2.921  11.043  0.0972  0.3878  0.2002
24898SOL    HW176135   0.553   2.994  10.988  1.0668 -0.0313 -0.8916
24898SOL    HW276136   0.505   2.862  11.044 -0.4540  1.0755  0.5487
24899SOL     OW76137   6.416   3.167  11.227 -0.4151  0.7627  0.0714
24899SOL    HW176138   6.331   3.124  11.221 -0.0513 -0.0205  0.4721
24899SOL    HW276139   6.425   3.189  11.320 -1.1365  2.8518 -0.2915
24900SOL     OW76140   7.812   4.486  11.261  0.2076  0.2687  0.4303
24900SOL    HW176141   7.854   4.417  11.211 -0.0348  1.4769 -1.5176
24900SOL    HW276142   7.823   4.459  11.353  1.4037 -1.5759 -0.2050
24901SOL     OW76143   7.393   4.779  11.096 -0.0588  0.8826 -0.5038
24901SOL    HW176144   7.461   4.713  11.096 -0.8317  0.0012  1.5703
24901SOL    HW276145   7.362   4.782  11.005 -0.4351 -2.0899 -0.5615
24902SOL     OW76146   0.173   5.666  10.451  0.4500 -0.1345 -0.3161
24902SOL    HW176147   0.079   5.657  10.467  0.2235  2.3639  0.0969
24902SOL    HW276148   0.214   5.628  10.529 -0.2099 -0.5545 -0.1573
24903SOL     OW76149   7.339   4.719  10.531  0.1973 -0.0594  0.6414
24903SOL    HW176150   7.351   4.770  10.451 -1.0798  0.9007  1.0278
24903SOL    HW276151   7.427   4.688  10.553  0.5611 -0.4495 -1.1817
24904SOL     OW76152   6.132   3.953  12.001  0.0441  0.2206 -0.1750
24904SOL    HW176153   6.194   3.991  12.064 -0.2391 -0.6445  0.6467
24904SOL    HW276154   6.046   3.962  12.044 -0.0649 -1.0213 -0.1054
24905SOL     OW76155   6.490   5.228  11.958 -0.0467  0.1332  0.0512
24905SOL    HW176156   6.456   5.161  12.017  2.2612 -2.0501 -0.9318
24905SOL    HW276157   6.482   5.190  11.870  2.5769  0.4698 -0.4249
24906SOL     OW76158   0.388   5.648  10.644  0.2581  0.8991 -0.0201
24906SOL    HW176159   0.429   5.575  10.597 -1.6820 -0.7317  0.6362
24906SOL    HW276160   0.387   5.620  10.735 -1.7032  1.0794  0.0705
24907SOL     OW76161   6.409   3.616   0.254 -0.3204 -0.4363 -0.5680
24907SOL    HW176162   6.490   3.585   0.295 -0.2751 -1.1847 -1.1994
24907SOL    HW276163   6.422   3.598   0.160 -0.2995  1.4803 -0.9777
24908SOL     OW76164   0.629   4.904   0.993  0.4485  0.1006 -0.2698
24908SOL    HW176165   0.660   4.878   1.080 -1.1331 -1.9906 -0.2426
24908SOL    HW276166   0.709   4.918   0.942  1.4317 -1.0045  0.8987
24909SOL     OW76167   7.496   4.974  11.252 -0.2456 -1.1111  0.1999
24909SOL    HW176168   7.571   4.915  11.249 -0.2382 -1.0689 -0.6764
24909SOL    HW276169   7.425   4.925  11.211  0.1800  0.0460 -2.0670
24910SOL     OW76170   5.538   2.579  12.292 -0.4498  0.3732 -0.5260
24910SOL    HW176171   5.497   2.493  12.296 -1.1506  0.7030 -0.5450
24910SOL    HW276172   5.511   2.615  12.207 -0.6293  0.8432 -0.2742
24911SOL     OW76173   7.205   3.147  11.878 -0.7444 -0.2946 -0.3987
24911SOL    HW176174   7.158   3.066  11.901 -3.4047  1.7596  2.2910
24911SOL    HW276175   7.169   3.172  11.793  0.1505 -1.9153 -1.2896
24912SOL     OW76176   7.605   6.646   0.649 -0.5192 -0.0362 -0.1766
24912SOL    HW176177   7.532   6.646   0.710  1.4041  1.0688  2.2860
24912SOL    HW276178   7.660   6.573   0.677  1.2336  1.5087  0.6033
24913SOL     OW76179   5.687   2.939   0.214  0.0695 -0.1090  0.2234
24913SOL    HW176180   5.697   2.847   0.187 -0.7919 -0.0844 -0.2282
24913SOL    HW276181   5.719   2.989   0.139  1.0437 -0.0327  0.6817
24914SOL     OW76182   1.462   4.848   0.356 -0.3936  0.3018 -0.1401
24914SOL    HW176183   1.464   4.937   0.390 -2.8699  1.1131 -1.8108
24914SOL    HW276184   1.379   4.812   0.387  0.5490 -1.4441  0.4686
24915SOL     OW76185   7.240   3.973  11.516 -0.1395  0.3931 -0.8143
24915SOL    HW176186   7.304   4.039  11.489  2.3624 -1.4774  0.1592
24915SOL    HW276187   7.245   3.973  11.612 -1.8488  0.3709 -0.6924
24916SOL     OW76188   7.471   4.297  10.509 -0.1073  0.1860  0.0566
24916SOL    HW176189   7.557   4.256  10.502  0.1311  0.7311 -0.3729
24916SOL    HW276190   7.423   4.265  10.432  1.0453  2.8414 -1.9464
24917SOL     OW76191   7.443   3.076  10.168  0.3932 -0.0218  0.1514
24917SOL    HW176192   7.390   3.138  10.118  0.4647 -0.3294 -0.3102
24917SOL    HW276193   7.529   3.118  10.175  0.4988 -0.1527 -0.3303
24918SOL     OW76194   0.631   4.637  10.155 -0.0763 -0.0583  0.9414
24918SOL    HW176195   0.536   4.623  10.147  0.0192  0.1902 -1.0411
24918SOL    HW276196   0.639   4.714  10.212 -1.1150  0.5670  0.2812
24919SOL     OW76197   0.472   4.192   1.408 -0.0286  0.6801  0.1839
24919SOL    HW176198   0.410   4.236   1.349 -0.2627 -1.0835 -0.9522
24919SOL    HW276199   0.528   4.262   1.440  0.1999  1.7368 -2.2606
24920SOL     OW76200   7.515   5.348   0.042  0.3482 -0.2263  0.1781
24920SOL    HW176201   7.588   5.299   0.079  1.6817  1.0503 -0.7035
24920SOL    HW276202   7.477   5.289  -0.023  1.3813 -0.4154 -0.2618
24921SOL     OW76203   7.572   5.257   0.515  0.4428 -0.4023  0.0412
24921SOL    HW176204   7.594   5.193   0.447  1.3084 -1.0421  0.8958
24921SOL    HW276205   7.625   5.334   0.493  1.3573 -0.9000  0.4381
24922SOL     OW76206   5.284   3.694  12.394 -0.2420  0.0407  0.5843
24922SOL    HW176207   5.303   3.768  12.337 -1.6695 -1.2575 -1.7306
24922SOL    HW276208   5.313   3.617  12.344 -1.2889 -1.1462  1.7301
24923SOL     OW76209   7.694   6.971  11.928 -0.3559 -0.1473  0.4990
24923SOL    HW176210   7.638   7.010  11.995 -2.6156 -1.5447 -0.4286
24923SOL    HW276211   7.685   6.877  11.941  0.9876 -0.4169 -0.3469
24924SOL     OW76212   0.324   5.087  12.295 -0.0213  0.4721  0.5058
24924SOL    HW176213   0.290   5.083  12.205 -1.2525  0.8046  0.9391
24924SOL    HW276214   0.395   5.023  12.296  1.7000  2.2098 -1.3822
24925SOL     OW76215   0.304   4.334   0.042 -0.4482  0.3477  0.2593
24925SOL    HW176216   0.320   4.260   0.100 -0.5525 -0.5233 -0.8023
24925SOL    HW276217   0.391   4.357   0.008 -0.7423 -1.3000 -1.7874
24926SOL     OW76218   1.228   4.539  12.213  0.2771  0.2653 -0.1387
24926SOL    HW176219   1.306   4.511  12.261 -0.8459 -0.4198  1.3405
24926SOL    HW276220   1.258   4.545  12.122  2.0685  0.0892  0.3954
24927SOL     OW76221   0.894   5.040   0.343 -0.0247  0.3612 -0.1954
24927SOL    HW176222   0.851   5.025   0.259  1.3704  0.8319 -1.0373
24927SOL    HW276223   0.958   5.109   0.325 -0.3179  1.1101  1.4833
24928SOL     OW76224   7.494   3.778  11.837  0.0355 -0.0178  0.1250
24928SOL    HW176225   7.441   3.834  11.781 -0.5171  0.1740  0.8407
24928SOL    HW276226   7.466   3.689  11.815 -0.6016  0.0834  0.5173
24929SOL     OW76227   7.046   6.295   0.844 -0.0455  0.2946 -0.2490
24929SOL    HW176228   6.999   6.376   0.863  1.1906  0.7900  0.8720
24929SOL    HW276229   7.132   6.323   0.814 -0.6938 -0.5703 -3.2932
24930SOL     OW76230   0.334   6.409  11.421 -0.3931 -0.0598 -0.3336
24930SOL    HW176231   0.318   6.320  11.389  0.4480 -0.1498 -0.5155
24930SOL    HW276232   0.270   6.421  11.491 -0.7498 -0.6791 -0.5448
24931SOL     OW76233   6.974   5.049  11.151  0.2268  0.6602 -0.0234
24931SOL    HW176234   6.889   5.072  11.114  0.2552  0.6314 -0.1061
24931SOL    HW276235   6.956   4.975  11.210  0.5906 -1.1725 -2.0960
24932SOL     OW76236   5.894   5.331   0.031  0.3056 -0.0326  0.4833
24932SOL    HW176237   5.951   5.406   0.044 -1.8670  1.6164  1.0068
24932SOL    HW276238   5.833   5.333   0.105 -0.8318 -1.3227 -0.3513
24933SOL     OW76239   7.465   5.490   0.332 -0.5345  0.2662  0.2234
24933SOL    HW176240   7.538   5.517   0.276 -1.4765  3.5002  0.3148
24933SOL    HW276241   7.505   5.468   0.416  0.5574 -1.1226 -0.6245
24934SOL     OW76242   6.838   4.050  11.005 -0.3760 -0.0049 -0.5445
24934SOL    HW176243   6.812   4.037  11.096 -0.7621  2.2920 -0.2634
24934SOL    HW276244   6.840   3.962  10.968 -0.5326 -0.9698  1.5833
24935SOL     OW76245   0.226   3.903   0.303 -0.3760  0.2971 -0.0748
24935SOL    HW176246   0.157   3.854   0.257 -1.3565  0.9020  0.7272
24935SOL    HW276247   0.286   3.929   0.233  0.4842 -2.4710 -0.4877
24936SOL     OW76248   0.805   6.005  10.714  0.4741  0.0433  0.4373
24936SOL    HW176249   0.741   6.050  10.769  0.2756  0.2239  0.0695
24936SOL    HW276250   0.870   5.971  10.774 -0.9018 -1.7033  1.0175
24937SOL     OW76251   6.915   5.335  12.051 -0.0320 -0.1546 -0.1648
24937SOL    HW176252   6.941   5.410  12.105  1.0540  0.3135 -1.2809
24937SOL    HW276253   6.821   5.325  12.067  0.2026  0.1496  1.5585
24938SOL     OW76254   0.523   4.491   0.897  0.5224 -0.3375 -0.0671
24938SOL    HW176255   0.555   4.491   0.988 -0.3082  0.0935  0.2349
24938SOL    HW276256   0.477   4.575   0.889  1.3516  0.0316 -1.1623
24939SOL     OW76257   6.761   4.009   9.656 -0.2565 -0.3343 -0.2534
24939SOL    HW176258   6.842   4.051   9.628 -1.1635  1.6675 -0.0924
24939SOL    HW276259   6.712   3.994   9.576 -0.1520 -0.5724 -0.2713
24940SOL     OW76260   5.803   2.512  11.307  0.0986 -0.2945 -0.5047
24940SOL    HW176261   5.862   2.570  11.355  0.3510  0.4968 -1.7215
24940SOL    HW276262   5.716   2.535  11.338  0.3504 -1.2125  1.0354
24941SOL     OW76263   0.789   5.155  10.840 -0.0590 -0.4096  0.6711
24941SOL    HW176264   0.812   5.066  10.866  0.6106 -0.0365  1.4076
24941SOL    HW276265   0.849   5.175  10.769 -0.5821 -0.7302  0.1241
24942SOL     OW76266   0.921   4.724  10.634 -0.0242 -0.7919 -0.0999
24942SOL    HW176267   0.898   4.803  10.585  0.0510 -0.1734  0.8494
24942SOL    HW276268   1.014   4.734  10.654 -0.6305  0.3131  2.5378
24943SOL     OW76269   7.209   3.709  11.301 -0.5030 -0.0017 -0.0338
24943SOL    HW176270   7.165   3.675  11.379 -0.9624  0.4492 -0.0886
24943SOL    HW276271   7.296   3.735  11.332 -0.4676 -0.3852  0.1966
24944SOL     OW76272   0.478   4.925   0.419  0.0650 -0.1991 -0.2680
24944SOL    HW176273   0.498   4.905   0.327  0.3154  0.9688 -0.4824
24944SOL    HW276274   0.466   4.839   0.459  2.9476 -0.9484 -0.7134
24945SOL     OW76275   6.737   6.002   1.885 -0.1530  0.1727  0.2484
24945SOL    HW176276   6.810   6.056   1.916 -0.5179  0.5125  0.5225
24945SOL    HW276277   6.775   5.915   1.873  0.5268  0.5688 -0.5500
24946SOL     OW76278   0.084   4.717   1.238  0.4130  0.1431 -0.1762
24946SOL    HW176279   0.020   4.777   1.198  0.9327  1.3958  0.8327
24946SOL    HW276280   0.166   4.766   1.239  1.1150 -0.9854 -0.2709
24947SOL     OW76281   1.571   5.929   0.207 -0.0223  0.2108  0.3784
24947SOL    HW176282   1.533   5.859   0.154  0.8276  0.7058 -0.9427
24947SOL    HW276283   1.499   5.991   0.220 -0.5212 -0.4397  0.7367
24948SOL     OW76284   6.549   0.939   2.389  0.1960  0.2191 -0.1479
24948SOL    HW176285   6.581   0.995   2.318 -0.6736 -0.9468 -1.4929
24948SOL    HW276286   6.454   0.944   2.383  0.1014  0.4196  1.2141
24949SOL     OW76287   0.415   7.469   0.475  0.5798 -0.6364  0.0667
24949SOL    HW176288   0.471   7.546   0.487 -0.9386  0.9084 -2.0502
24949SOL    HW276289   0.342   7.483   0.535  0.5834 -0.7501  0.0985
24950SOL     OW76290   6.081   7.376  11.565 -0.3713 -0.8055  0.1956
24950SOL    HW176291   6.057   7.399  11.655  0.4331 -0.1785  0.2616
24950SOL    HW276292   5.999   7.382  11.517 -0.3701  1.6902  0.3368
24951SOL     OW76293   0.840   7.219   0.608  0.3620 -0.4675 -0.1685
24951SOL    HW176294   0.789   7.198   0.685  3.2978 -1.0740  1.7749
24951SOL    HW276295   0.871   7.309   0.622  2.1474 -1.0900  0.1992
24952SOL     OW76296   0.247   6.942   1.657  0.1532  0.2389 -0.4903
24952SOL    HW176297   0.176   6.914   1.715 -0.0203 -0.6404 -1.1095
24952SOL    HW276298   0.238   6.887   1.579  0.3198  1.4702 -1.4077
24953SOL     OW76299   0.329   6.346   0.169  0.4421  0.2995 -0.1458
24953SOL    HW176300   0.294   6.365   0.257  2.4561  0.4274  0.6752
24953SOL    HW276301   0.282   6.406   0.111 -0.0934  1.0328  1.0093
24954SOL     OW76302   7.693   7.579   1.916 -0.0844  0.5872 -0.1438
24954SOL    HW176303   7.616   7.614   1.871  0.2230  0.5228 -0.7294
24954SOL    HW276304   7.678   7.600   2.008 -0.4602  1.2209 -0.3394
24955SOL     OW76305   7.678   0.120   0.388  0.2783  0.1642  0.0922
24955SOL    HW176306   7.624   0.117   0.310 -0.3730 -0.9178  0.5693
24955SOL    HW276307   7.648   0.047   0.442 -0.4425  1.8438  2.1242
24956SOL     OW76308   0.218   6.557   2.769  0.8039  0.0265 -0.1343
24956SOL    HW176309   0.308   6.529   2.787  1.6923  0.8319 -2.7214
24956SOL    HW276310   0.205   6.635   2.823  1.2009 -0.7739  1.1490
24957SOL     OW76311   6.524   4.880   0.384 -0.1067  0.5102 -0.4598
24957SOL    HW176312   6.478   4.950   0.336 -0.7481  0.2829 -0.1869
24957SOL    HW276313   6.604   4.922   0.416 -0.2538  0.9922 -0.7094
24958SOL     OW76314   7.200   5.934   1.325  0.2366 -0.1784 -1.0853
24958SOL    HW176315   7.267   5.988   1.367 -0.9991 -0.8636  2.0138
24958SOL    HW276316   7.240   5.848   1.315  0.2229 -0.2857 -0.2853
24959SOL     OW76317   0.303   4.857   1.245  0.6138 -0.8527  0.2319
24959SOL    HW176318   0.362   4.845   1.320 -0.3244  0.2188  1.1790
24959SOL    HW276319   0.355   4.830   1.169  2.5177  0.5775  0.9521
24960SOL     OW76320   6.075   7.502   1.253 -0.2188  0.0694 -0.0209
24960SOL    HW176321   6.027   7.562   1.310  0.5426 -0.1703  0.8962
24960SOL    HW276322   6.124   7.446   1.313 -0.3529 -1.0019 -0.8776
24961SOL     OW76323   6.527   6.604   0.788 -0.1383 -0.8312  0.3260
24961SOL    HW176324   6.470   6.667   0.833 -0.1042  0.5543 -1.4618
24961SOL    HW276325   6.491   6.518   0.812 -1.2863 -0.0819  1.4155
24962SOL     OW76326   0.802   0.564   1.466  0.4390 -0.8229 -0.3547
24962SOL    HW176327   0.883   0.512   1.460  0.6994 -0.3769 -0.7505
24962SOL    HW276328   0.752   0.540   1.388  0.5892 -0.4362 -0.5731
24963SOL     OW76329   5.712   7.124   3.987 -0.2312 -0.0913 -0.2192
24963SOL    HW176330   5.772   7.048   3.984 -0.9738 -0.8185  1.6428
24963SOL    HW276331   5.627   7.086   4.006 -0.4176  1.2620  1.9871
24964SOL     OW76332   6.915   7.945   1.258 -0.5771  0.1276 -0.1609
24964SOL    HW176333   6.985   7.928   1.195  0.7156  1.4254  0.8485
24964SOL    HW276334   6.923   8.038   1.278 -2.0348  0.1085  0.6680
24965SOL     OW76335   6.624   6.600   0.516  0.1896 -0.2280  0.6355
24965SOL    HW176336   6.606   6.617   0.608  0.4779  0.7477  0.5197
24965SOL    HW276337   6.578   6.518   0.497 -0.7538  0.1149  1.3749
24966SOL     OW76338   0.768   5.593   0.078 -0.2914 -1.0673  0.4252
24966SOL    HW176339   0.694   5.587   0.138 -1.4664 -0.3202 -0.8882
24966SOL    HW276340   0.809   5.506   0.082 -2.6246 -2.3034 -0.5223
24967SOL     OW76341   1.692   5.002   1.646  0.3803  0.2292  0.4577
24967SOL    HW176342   1.788   5.003   1.641  0.3350  0.9555 -0.8317
24967SOL    HW276343   1.664   4.990   1.555 -0.7378  0.9887  0.6848
24968SOL     OW76344   7.063   0.139   1.868  0.0753  0.1643 -0.5255
24968SOL    HW176345   7.009   0.060   1.875  0.7600 -0.5702 -2.5929
24968SOL    HW276346   7.106   0.130   1.783  0.7973  2.3935 -0.4510
24969SOL     OW76347   5.088   5.481   1.058 -0.3495  0.0166 -0.5564
24969SOL    HW176348   5.117   5.399   1.019 -0.0434  0.1531 -0.6183
24969SOL    HW276349   4.993   5.470   1.070 -0.4441 -0.0327 -1.3172
24970SOL     OW76350   1.314   4.676   0.078  0.5642 -0.1426 -0.4587
24970SOL    HW176351   1.385   4.613   0.093  0.9589  0.5926  0.9441
24970SOL    HW276352   1.349   4.759   0.111 -0.6763  0.3923 -0.4482
24971SOL     OW76353   6.092   4.978  12.489  0.1624 -0.3178 -0.4914
24971SOL    HW176354   6.093   5.013  12.578  1.1171  1.2810 -1.0883
24971SOL    HW276355   6.026   5.030  12.443  0.6378 -0.1779 -1.0447
24972SOL     OW76356   7.869   7.122   2.004 -0.2896  0.1848  0.3390
24972SOL    HW176357   7.907   7.194   1.953 -0.2003 -0.2171 -0.1732
24972SOL    HW276358   7.775   7.133   1.994 -0.3350 -1.7972 -2.7577
24973SOL     OW76359   6.537   5.996   1.207  0.1100 -0.0120 -0.2743
24973SOL    HW176360   6.567   5.989   1.116  0.4415  1.1823 -0.2701
24973SOL    HW276361   6.442   5.981   1.201  0.3614 -1.6277 -0.5750
24974SOL     OW76362   6.724   6.100   1.392 -0.3575  0.0339 -0.2354
24974SOL    HW176363   6.683   6.041   1.328 -1.6871  0.3943  0.2413
24974SOL    HW276364   6.673   6.087   1.472  0.9707 -0.0513  0.6284
24975SOL     OW76365   1.210   1.057   0.250 -0.4047 -0.0720 -0.2222
24975SOL    HW176366   1.271   1.127   0.272  0.0694 -0.3525 -0.6113
24975SOL    HW276367   1.262   0.977   0.261 -0.5557 -0.2883 -1.0414
24976SOL     OW76368   7.360   5.945   2.959  0.0709  0.2443 -0.3622
24976SOL    HW176369   7.448   5.973   2.986  1.1140 -3.3795  0.6065
24976SOL    HW276370   7.360   5.953   2.864  2.3210 -1.5863 -0.6003
24977SOL     OW76371   7.839   7.436   1.270 -0.1961 -0.0582  0.3440
24977SOL    HW176372   7.767   7.472   1.218 -0.8471 -1.0480  0.5417
24977SOL    HW276373   7.817   7.344   1.282 -0.1681  0.1654  2.5349
24978SOL     OW76374   6.863   7.198   1.953  0.1614 -0.4190 -0.1208
24978SOL    HW176375   6.801   7.191   2.026 -1.4472 -2.5183 -1.5777
24978SOL    HW276376   6.895   7.288   1.958  0.0611 -0.4276  3.0676
24979SOL     OW76377   6.288   6.176   1.995 -0.0097 -0.5601  0.2071
24979SOL    HW176378   6.283   6.094   1.947  1.4661 -0.4512 -0.1854
24979SOL    HW276379   6.377   6.178   2.031  0.2830  1.2365 -0.5073
24980SOL     OW76380   6.016   6.614   0.434  0.0543  0.0115 -0.2349
24980SOL    HW176381   5.964   6.537   0.458  2.1953 -1.0351  1.3823
24980SOL    HW276382   5.975   6.686   0.482  0.0650 -0.7968  1.0438
24981SOL     OW76383   6.782   7.445   1.697  0.0472 -0.1406 -0.7344
24981SOL    HW176384   6.811   7.442   1.606  1.0237  1.0073 -0.4944
24981SOL    HW276385   6.795   7.536   1.723  0.9250 -0.6853  0.9012
24982SOL     OW76386   6.046   7.655   2.354  0.4030  0.1384 -0.3157
24982SOL    HW176387   6.138   7.661   2.380  0.4101  0.8806 -0.4934
24982SOL    HW276388   6.044   7.588   2.286  0.8044  0.0993 -0.2867
24983SOL     OW76389   6.709   5.787   0.636  0.5436  0.6609 -0.0889
24983SOL    HW176390   6.793   5.741   0.644  0.1609  0.0099  0.3069
24983SOL    HW276391   6.675   5.761   0.550  0.4302  0.3667  0.0422
24984SOL     OW76392   1.188   4.528   1.996  0.4777 -0.1255 -0.2161
24984SOL    HW176393   1.169   4.522   2.089  1.6747  1.0291  0.1478
24984SOL    HW276394   1.118   4.582   1.960 -1.0501 -2.1326 -0.3855
24985SOL     OW76395   6.553   6.582  11.358 -0.0261 -0.0505  0.1586
24985SOL    HW176396   6.566   6.527  11.435  2.4053  0.3833  0.1387
24985SOL    HW276397   6.640   6.615  11.337 -0.8022  0.7397 -2.1287
24986SOL     OW76398   6.650   7.075  12.466 -0.6040 -0.2327  0.5560
24986SOL    HW176399   6.589   7.052  12.535  0.2880 -3.9986  0.2901
24986SOL    HW276400   6.642   7.005  12.401  0.3486  1.8561 -2.0078
24987SOL     OW76401   0.209   5.715   1.396 -0.2846 -0.0489 -0.1634
24987SOL    HW176402   0.239   5.624   1.395 -0.6125 -0.1629 -0.0069
24987SOL    HW276403   0.273   5.763   1.344 -0.4931 -0.4958 -0.8466
24988SOL     OW76404   7.313   6.593   0.816 -0.3963 -0.2630  0.0906
24988SOL    HW176405   7.267   6.595   0.732 -1.8779 -0.1783  0.8675
24988SOL    HW276406   7.336   6.685   0.833 -2.0360  0.0724  0.7539
24989SOL     OW76407   6.910   6.511   0.892 -0.1034  0.0498  0.1238
24989SOL    HW176408   6.877   6.600   0.875 -0.8279 -0.4953 -1.5024
24989SOL    HW276409   6.978   6.523   0.959  0.4241  1.9396 -0.6847
24990SOL     OW76410   7.292   6.953   3.355  0.3104  0.4117  0.1598
24990SOL    HW176411   7.241   6.903   3.419  2.0793 -0.3320  1.0795
24990SOL    HW276412   7.304   7.039   3.397 -2.6217  1.7132 -1.3653
24991SOL     OW76413   0.813   6.693   1.563  0.3066 -0.0474 -0.2327
24991SOL    HW176414   0.857   6.631   1.506 -0.9296 -0.6353 -0.5800
24991SOL    HW276415   0.797   6.644   1.644  0.4556  0.2202 -0.0391
24992SOL     OW76416   7.321   1.365   1.557 -0.6382  0.3679  0.3461
24992SOL    HW176417   7.310   1.359   1.462 -1.6170 -3.0835  0.5575
24992SOL    HW276418   7.284   1.451   1.580 -0.2224  1.3630 -2.3471
24993SOL     OW76419   7.295   4.971   1.498 -0.1986 -0.4474 -0.1225
24993SOL    HW176420   7.269   4.891   1.544 -0.9043 -0.3770 -0.3909
24993SOL    HW276421   7.299   5.038   1.566 -0.8396 -0.4345 -0.0907
24994SOL     OW76422   1.136   7.308   2.607 -0.2993  0.5614  0.2755
24994SOL    HW176423   1.180   7.244   2.551  0.2756 -1.5845  2.9465
24994SOL    HW276424   1.090   7.366   2.547  1.2267 -0.8310 -2.3978
24995SOL     OW76425   7.823   0.393   0.331  0.0067 -0.2547  0.4420
24995SOL    HW176426   7.790   0.319   0.381  0.7208 -0.5601  0.4714
24995SOL    HW276427   7.845   0.459   0.396 -1.0845  0.1828  0.3874
24996SOL     OW76428   6.688   6.083   0.445 -0.0393  0.3008  0.1683
24996SOL    HW176429   6.613   6.041   0.404 -0.6526  1.7530 -0.2447
24996SOL    HW276430   6.757   6.017   0.442 -0.6267 -0.2773 -1.5154
24997SOL     OW76431   7.591   0.071   1.055  0.3480 -0.2264  0.6337
24997SOL    HW176432   7.555  -0.007   1.014 -0.2222  1.0037 -1.3295
24997SOL    HW276433   7.679   0.079   1.018  0.2021  0.3420  0.3991
24998SOL     OW76434   0.839   4.745  11.745 -0.3241  0.0408  0.4560
24998SOL    HW176435   0.826   4.808  11.816  0.1771 -0.1147  0.6934
24998SOL    HW276436   0.921   4.772  11.704 -0.1873 -0.3597  0.4620
24999SOL     OW76437   1.546   0.885   2.686 -0.0517 -0.1272 -0.0608
24999SOL    HW176438   1.485   0.917   2.619 -0.8812  0.2712  0.8708
24999SOL    HW276439   1.508   0.912   2.769  1.1128 -0.3698  0.5786
25000SOL     OW76440   6.150   6.394   0.713  0.4902  0.1112  0.3852
25000SOL    HW176441   6.150   6.455   0.788  1.0797  2.0741 -1.1329
25000SOL    HW276442   6.190   6.315   0.748  0.1230  0.7080  2.3347
25001SOL     OW76443   5.202   5.303   0.251  0.4533  0.0766  0.1782
25001SOL    HW176444   5.224   5.360   0.325 -0.0981  0.8074 -0.2154
25001SOL    HW276445   5.112   5.326   0.228  0.4226 -0.5492 -0.3578
25002SOL     OW76446   1.034   6.961   2.202  0.0090 -0.6389  0.0188
25002SOL    HW176447   1.023   6.866   2.192 -2.7804 -0.6443  2.1955
25002SOL    HW276448   1.026   6.977   2.296  1.0451  1.7354 -0.2263
25003SOL     OW76449   1.020   7.177   1.447 -0.2398  0.1557  0.4292
25003SOL    HW176450   1.074   7.250   1.478 -1.1989  0.4110  1.5775
25003SOL    HW276451   1.048   7.103   1.500  1.8652 -0.8067 -1.8027
25004SOL     OW76452   7.385   5.292   0.730 -0.3542  0.7056  0.3870
25004SOL    HW176453   7.477   5.268   0.714 -0.4094 -0.1974  1.3394
25004SOL    HW276454   7.350   5.311   0.642  0.4449 -0.0158 -0.1065
25005SOL     OW76455   1.120   4.553   2.266  0.1640  0.0590  0.2007
25005SOL    HW176456   1.121   4.488   2.336 -2.2181 -3.3280 -2.5589
25005SOL    HW276457   1.074   4.628   2.303 -0.7072 -1.4450  2.3623
25006SOL     OW76458   5.571   7.324   3.155  0.3585  0.1162  0.9276
25006SOL    HW176459   5.535   7.294   3.072  0.2704 -0.9086  1.3181
25006SOL    HW276460   5.623   7.249   3.187 -1.0195 -0.1821  2.6185
25007SOL     OW76461   7.156   0.192   2.778 -0.5348 -0.1479 -0.3898
25007SOL    HW176462   7.088   0.232   2.723  0.8137  4.4775  0.8567
25007SOL    HW276463   7.238   0.218   2.737  0.5344 -1.8978  0.5302
25008SOL     OW76464   0.041   7.321   4.551  0.3454 -0.3097  0.5071
25008SOL    HW176465   0.053   7.331   4.456  0.0065  1.2471  0.6060
25008SOL    HW276466   0.129   7.306   4.584  0.2439 -3.0940 -0.2502
25009SOL     OW76467   7.433   0.340   4.900  0.2141 -0.3491  0.2028
25009SOL    HW176468   7.425   0.265   4.840 -2.6875 -0.7420  0.9325
25009SOL    HW276469   7.426   0.301   4.987 -0.2077  0.6607  0.6332
25010SOL     OW76470   6.305   0.380   3.612 -0.2059  0.4566 -0.1011
25010SOL    HW176471   6.255   0.461   3.601 -0.5831  0.4980  1.5351
25010SOL    HW276472   6.269   0.320   3.548 -1.5208  0.8724  0.2251
25011SOL     OW76473   0.555   1.166   3.911  0.1775  0.8976 -0.1022
25011SOL    HW176474   0.564   1.258   3.886 -2.1575  1.2798  0.2223
25011SOL    HW276475   0.490   1.167   3.982 -1.8265 -1.1918 -1.7816
25012SOL     OW76476   0.094   7.043   3.423 -0.4927 -0.2160  0.3632
25012SOL    HW176477   0.094   6.967   3.481 -1.1064 -0.7913 -0.3693
25012SOL    HW276478   0.027   7.101   3.460 -1.5119 -0.9749 -0.2594
25013SOL     OW76479   7.099   6.692   4.056  1.0370  0.8707  0.1725
25013SOL    HW176480   7.021   6.678   4.002  0.9758 -0.6498  0.5931
25013SOL    HW276481   7.170   6.652   4.006  0.5662 -2.9475  2.2121
25014SOL     OW76482   4.980   6.412   0.572 -0.6109 -1.0843 -0.2958
25014SOL    HW176483   5.067   6.445   0.550 -0.6772 -1.2833 -0.8562
25014SOL    HW276484   4.950   6.470   0.643 -0.4412 -0.3812 -0.7899
25015SOL     OW76485   1.058   4.520   4.536 -0.2882  0.7215  0.0011
25015SOL    HW176486   1.001   4.450   4.568  1.0003  0.7110  2.6201
25015SOL    HW276487   1.011   4.558   4.463 -2.8119 -0.4332  0.8961
25016SOL     OW76488   0.619   5.987   3.891  0.3910  0.2237  0.0955
25016SOL    HW176489   0.597   6.002   3.799  0.1508 -2.3901 -0.3314
25016SOL    HW276490   0.701   5.937   3.888  0.3991  0.1345  1.3239
25017SOL     OW76491   0.887   6.851   6.221  0.1287  0.0779  0.4836
25017SOL    HW176492   0.884   6.863   6.126 -0.6948 -0.3683  0.4467
25017SOL    HW276493   0.928   6.765   6.232  0.7198  0.3609  0.5604
25018SOL     OW76494   6.935   0.288   2.622 -0.4198 -0.5030 -0.0400
25018SOL    HW176495   6.878   0.261   2.549 -1.0826  0.9693 -0.1084
25018SOL    HW276496   6.875   0.325   2.687  0.3757  0.3305  0.2433
25019SOL     OW76497   6.269   7.190   4.589 -0.3149 -0.1107  0.4353
25019SOL    HW176498   6.280   7.282   4.564 -1.8573 -0.4612 -1.8839
25019SOL    HW276499   6.202   7.191   4.657 -0.1681  0.5030  0.5715
25020SOL     OW76500   0.582   7.880   3.415  0.2352 -0.3833 -0.0134
25020SOL    HW176501   0.603   7.858   3.325  1.2664  1.8950 -0.4179
25020SOL    HW276502   0.494   7.844   3.429 -0.3975  0.0994 -2.2834
25021SOL     OW76503   5.837   6.871   3.835  0.9122  0.3390  0.8531
25021SOL    HW176504   5.850   6.789   3.786  0.8476  0.6212  0.3610
25021SOL    HW276505   5.889   6.859   3.915  0.8480 -0.2105  0.8177
25022SOL     OW76506   7.764   0.872   2.769  0.1400 -0.0271  0.0919
25022SOL    HW176507   7.750   0.965   2.788 -0.6397  0.3902 -2.2186
25022SOL    HW276508   7.693   0.827   2.814  0.7782  0.4214  1.6005
25023SOL     OW76509   0.772   6.789   3.384  0.0730 -0.3165  0.3029
25023SOL    HW176510   0.788   6.695   3.397 -2.0569 -0.7407  0.3214
25023SOL    HW276511   0.681   6.802   3.413  0.2160  1.6961  0.0085
25024SOL     OW76512   0.577   6.566   4.929  0.0505  0.4256 -0.3074
25024SOL    HW176513   0.495   6.565   4.979  0.0747 -2.2254 -0.2078
25024SOL    HW276514   0.646   6.569   4.995  0.0533 -0.3157 -0.2727
25025SOL     OW76515   7.208   3.634   3.345  0.6412  0.2346  0.4169
25025SOL    HW176516   7.123   3.609   3.310  1.3859 -0.1306 -1.2299
25025SOL    HW276517   7.239   3.557   3.392 -0.4575  0.7995  2.1768
25026SOL     OW76518   7.248   0.220   3.607 -0.1059  0.0914  0.2112
25026SOL    HW176519   7.252   0.172   3.524  2.0202  0.3207  0.1165
25026SOL    HW276520   7.201   0.301   3.586  1.6901  0.8410 -1.2006
25027SOL     OW76521   0.599   0.116   3.074 -0.3193  0.6326  0.4031
25027SOL    HW176522   0.659   0.141   3.004 -1.0345  0.9407 -0.1093
25027SOL    HW276523   0.615   0.022   3.086 -1.8970 -0.0199 -1.9069
25028SOL     OW76524   7.747   5.123   2.499 -0.1321  0.7863 -0.0214
25028SOL    HW176525   7.840   5.113   2.480  0.3486  2.9447  0.9472
25028SOL    HW276526   7.704   5.058   2.443  1.8558  0.4704 -1.2622
25029SOL     OW76527   0.410   4.884   2.783 -0.0109 -0.3673 -0.1520
25029SOL    HW176528   0.333   4.908   2.731  0.0307 -0.6805 -0.3608
25029SOL    HW276529   0.424   4.792   2.764  0.9033 -0.1155 -0.7472
25030SOL     OW76530   4.784   7.249   2.951  0.2507 -0.0200 -1.2089
25030SOL    HW176531   4.725   7.283   2.884 -2.1431  0.3050  0.9482
25030SOL    HW276532   4.766   7.155   2.954 -0.3661  0.1130 -0.3966
25031SOL     OW76533   6.633   7.244   3.212 -0.9588 -0.0758  0.3918
25031SOL    HW176534   6.723   7.239   3.178 -0.8724  0.5461  0.5251
25031SOL    HW276535   6.624   7.334   3.244 -1.8841  0.0946 -0.3236
25032SOL     OW76536   7.189   5.510   3.701  0.6550 -0.4614 -0.2304
25032SOL    HW176537   7.146   5.596   3.701  0.4157 -0.5778  0.2385
25032SOL    HW276538   7.140   5.459   3.635  1.6314  0.1571 -1.4785
25033SOL     OW76539   0.271   5.917   3.792 -0.6275  0.3351 -0.0406
25033SOL    HW176540   0.260   6.000   3.746  1.8240  1.2909  0.8988
25033SOL    HW276541   0.289   5.853   3.724  0.4435  1.2192 -0.6210
25034SOL     OW76542   7.398   6.237   2.686  0.1840  0.4091  0.6230
25034SOL    HW176543   7.448   6.303   2.638  0.0419  0.4656  0.5516
25034SOL    HW276544   7.464   6.180   2.725  0.2936  0.0905 -0.0253
25035SOL     OW76545   0.261   6.456   1.726 -0.5790 -0.0726 -0.8317
25035SOL    HW176546   0.325   6.510   1.772 -2.3487 -1.0356  3.1612
25035SOL    HW276547   0.313   6.385   1.688  0.9443 -0.2553  1.3859
25036SOL     OW76548   0.860   6.952   4.191  0.0844 -0.2967  0.0188
25036SOL    HW176549   0.894   6.921   4.107  0.8579 -0.2791  0.3203
25036SOL    HW276550   0.836   7.043   4.175  1.8161  0.2271  0.2473
25037SOL     OW76551   7.291   7.023   1.889 -0.3911  0.3785 -0.5084
25037SOL    HW176552   7.369   6.996   1.841 -0.2020 -0.4711  0.2455
25037SOL    HW276553   7.222   7.026   1.824 -0.1165 -0.6305 -0.8597
25038SOL     OW76554   6.964   6.734   2.171 -0.2371  0.2775 -0.2768
25038SOL    HW176555   6.989   6.731   2.263  1.6361  1.0507 -0.7077
25038SOL    HW276556   7.025   6.796   2.131  0.1155 -1.2767 -2.3595
25039SOL     OW76557   0.971   4.840   3.266 -0.0439 -0.1876 -0.3602
25039SOL    HW176558   1.033   4.774   3.237 -0.5193 -0.9270  0.2903
25039SOL    HW276559   0.894   4.827   3.211  1.0986  2.1761 -2.7512
25040SOL     OW76560   1.732   7.482   1.896 -0.9079 -0.1680 -0.4653
25040SOL    HW176561   1.692   7.514   1.977 -2.0404 -2.6604  0.0641
25040SOL    HW276562   1.811   7.436   1.925 -1.1870 -0.8526 -0.7616
25041SOL     OW76563   0.937   7.133   3.773  0.9381  0.0931  0.5211
25041SOL    HW176564   1.001   7.112   3.842  0.7181  0.7686  0.9465
25041SOL    HW276565   0.863   7.076   3.791  1.3006 -0.4839  0.2043
25042SOL     OW76566   7.154   6.544   4.299 -0.1211 -0.6394 -0.0655
25042SOL    HW176567   7.149   6.450   4.284 -0.4407 -0.4924 -0.9743
25042SOL    HW276568   7.128   6.583   4.215 -1.4002  0.2696  0.7095
25043SOL     OW76569   7.927   5.737   1.343 -0.1056  0.3225 -0.3595
25043SOL    HW176570   7.942   5.832   1.347 -1.5737  0.5659  0.1069
25043SOL    HW276571   8.014   5.699   1.338  0.5207  1.6904 -0.3650
25044SOL     OW76572   7.107   6.686   2.988 -0.1486  0.0881 -0.4575
25044SOL    HW176573   7.158   6.700   2.909 -0.2545  0.2219 -0.5023
25044SOL    HW276574   7.111   6.769   3.035 -2.6160  1.0445 -1.7775
25045SOL     OW76575   1.359   5.370   3.987 -0.0285  0.3657  0.5821
25045SOL    HW176576   1.332   5.311   3.917  0.3587  1.1672 -0.2664
25045SOL    HW276577   1.303   5.447   3.977  1.3866  1.3524 -0.1599
25046SOL     OW76578   7.727   5.343   1.057  0.9095  0.4421 -0.0028
25046SOL    HW176579   7.658   5.399   1.093  0.7392  0.0627  0.2742
25046SOL    HW276580   7.679   5.269   1.019  1.2174 -1.3825  2.8137
25047SOL     OW76581   7.826   0.614   1.892  0.4766  0.0206  0.2533
25047SOL    HW176582   7.903   0.557   1.901  0.8542  0.5323  0.2627
25047SOL    HW276583   7.808   0.615   1.798  0.9164  0.4778  0.1741
25048SOL     OW76584   7.673   0.019   3.205 -0.2501 -0.2165 -0.0463
25048SOL    HW176585   7.743   0.057   3.152  0.4043  0.2548  1.1117
25048SOL    HW276586   7.600   0.081   3.196 -0.4426 -0.5823 -1.0619
25049SOL     OW76587   6.501   6.456   3.500  0.0201 -0.3960  0.2529
25049SOL    HW176588   6.558   6.469   3.424 -1.1936 -2.6895 -1.1600
25049SOL    HW276589   6.559   6.430   3.571  1.6000  4.6128  1.1768
25050SOL     OW76590   7.848   5.274   3.460 -0.3092  0.2678  0.2633
25050SOL    HW176591   7.914   5.205   3.459 -3.3093 -2.8886  0.2303
25050SOL    HW276592   7.827   5.289   3.368  0.9062  1.9084  0.2270
25051SOL     OW76593   1.018   0.348   3.250  0.2598 -0.0417 -0.7270
25051SOL    HW176594   0.971   0.389   3.177  1.3950  1.8344 -0.4763
25051SOL    HW276595   1.054   0.421   3.299  0.9367 -1.3309  0.7779
25052SOL     OW76596   7.968   7.672   3.326  0.3518 -0.0817 -0.9280
25052SOL    HW176597   8.000   7.610   3.392 -0.8962  0.0410 -0.1556
25052SOL    HW276598   7.918   7.618   3.265  1.0007 -0.1105 -1.4393
25053SOL     OW76599   7.887   4.696   2.714  0.0959 -0.0930  0.0276
25053SOL    HW176600   7.970   4.658   2.742  0.7733  1.3334 -0.0055
25053SOL    HW276601   7.903   4.723   2.623 -0.6684 -0.5329 -0.2504
25054SOL     OW76602   0.190   4.976   2.639  0.4445  0.3487 -0.1798
25054SOL    HW176603   0.130   5.027   2.584  0.8035 -0.8937 -1.8197
25054SOL    HW276604   0.167   4.999   2.729 -1.1287  1.4033 -0.8164
25055SOL     OW76605   1.117   0.510   3.438  0.0259 -0.3221  0.2395
25055SOL    HW176606   1.071   0.449   3.495 -1.9922  0.2457 -0.6699
25055SOL    HW276607   1.058   0.585   3.431  0.2539 -0.2800 -2.3935
25056SOL     OW76608   0.630   1.020   5.564 -0.1142  0.5457 -0.2901
25056SOL    HW176609   0.609   1.040   5.655  0.3905 -0.5820  0.0998
25056SOL    HW276610   0.567   1.071   5.512  0.4457  2.2508  0.6286
25057SOL     OW76611   1.084   7.506   3.853  0.0068  0.0293 -0.2049
25057SOL    HW176612   1.035   7.473   3.778  1.0249 -1.0499 -0.4272
25057SOL    HW276613   1.018   7.521   3.920 -0.5144 -2.9681  0.0717
25058SOL     OW76614   0.488   7.180   5.112 -0.2697  0.1719  0.3178
25058SOL    HW176615   0.414   7.119   5.117 -0.1387  0.0062  0.2407
25058SOL    HW276616   0.538   7.164   5.192 -1.2682  1.5241  1.2609
25059SOL     OW76617   7.130   7.701   2.090  0.3567  0.4104  0.1823
25059SOL    HW176618   7.224   7.708   2.076  0.6944 -0.7422  1.5474
25059SOL    HW276619   7.118   7.725   2.182 -0.7436  0.9513 -0.0843
25060SOL     OW76620   0.674   7.344   2.937 -0.5058  0.1970  0.0529
25060SOL    HW176621   0.664   7.419   2.878 -0.6667 -0.9262 -1.3976
25060SOL    HW276622   0.706   7.274   2.881  2.0799 -0.1914  1.8415
25061SOL     OW76623   1.050   7.011   4.528  0.4256 -0.0628 -0.5661
25061SOL    HW176624   1.047   7.087   4.470  0.8357 -0.0374 -0.5561
25061SOL    HW276625   1.100   7.040   4.603 -0.5264  0.0606  0.0388
25062SOL     OW76626   7.310   6.451   1.247  0.1557  0.4652 -0.3852
25062SOL    HW176627   7.352   6.520   1.299  0.8514 -0.1061 -0.1693
25062SOL    HW276628   7.360   6.372   1.268  0.4007  0.2025 -1.8730
25063SOL     OW76629   7.168   6.341   2.807 -0.0180 -0.4987 -0.3763
25063SOL    HW176630   7.098   6.281   2.781 -0.5148  0.8165 -2.2790
25063SOL    HW276631   7.248   6.301   2.774 -0.2580 -0.5176 -0.9529
25064SOL     OW76632   7.083   0.717   5.215 -0.4688 -0.8313 -0.2613
25064SOL    HW176633   6.995   0.683   5.207  0.3524 -2.8215 -1.3911
25064SOL    HW276634   7.109   0.740   5.126  0.1977 -0.3639  0.0425
25065SOL     OW76635   0.787   0.848   5.311 -0.2775  0.5568  0.4937
25065SOL    HW176636   0.783   0.942   5.325 -0.6283  0.4961  0.8341
25065SOL    HW276637   0.756   0.810   5.394 -1.3024  0.1609 -0.0515
25066SOL     OW76638   6.391   5.975   0.820 -0.0828  0.4930 -0.0696
25066SOL    HW176639   6.468   5.980   0.878  0.5149 -1.2577 -0.6503
25066SOL    HW276640   6.328   6.035   0.860 -0.0598 -1.2627  2.9879
25067SOL     OW76641   7.620   6.406   2.792 -0.0532  0.7260  0.0120
25067SOL    HW176642   7.658   6.476   2.741 -2.0454  1.5992 -0.3749
25067SOL    HW276643   7.536   6.441   2.823 -1.2916 -1.5634 -0.4868
25068SOL     OW76644   0.332   7.527   3.414  0.1336  0.0014 -0.6418
25068SOL    HW176645   0.395   7.512   3.343  2.5732  1.4571  1.0601
25068SOL    HW276646   0.348   7.456   3.476 -0.9720 -0.4465 -0.8523
25069SOL     OW76647   1.003   7.215   3.298  0.0097  0.5906  0.1438
25069SOL    HW176648   1.080   7.161   3.279 -0.4385 -0.2203  0.5929
25069SOL    HW276649   0.971   7.242   3.212  0.4733  0.4782 -0.0679
25070SOL     OW76650   7.893   4.796   4.563  0.5057 -0.0627 -0.4213
25070SOL    HW176651   7.863   4.714   4.526 -0.7508  0.5243 -0.7437
25070SOL    HW276652   7.840   4.808   4.642 -2.0189  2.1474 -2.2324
25071SOL     OW76653   7.368   6.163   4.688 -0.5492  0.0859 -0.6064
25071SOL    HW176654   7.394   6.099   4.754 -0.5204  1.5682  0.9221
25071SOL    HW276655   7.314   6.114   4.626 -0.4923 -1.4094  0.4686
25072SOL     OW76656   0.052   5.990   3.956  0.2810  0.1001  0.8478
25072SOL    HW176657   0.129   5.972   3.902 -0.4085  0.5612 -0.3194
25072SOL    HW276658   0.049   5.915   4.017  1.0462 -0.4611  0.2311
25073SOL     OW76659   7.770   7.617   3.929  0.7651 -0.2524  0.1340
25073SOL    HW176660   7.800   7.530   3.903 -2.2477 -1.5662  0.5865
25073SOL    HW276661   7.771   7.616   4.025  2.1084  0.8239  0.1715
25074SOL     OW76662   1.248   4.772   3.400 -0.4787  0.1006 -0.7704
25074SOL    HW176663   1.285   4.756   3.487 -2.5783 -4.2313 -0.4515
25074SOL    HW276664   1.189   4.847   3.412 -1.0000 -0.6208  1.6447
25075SOL     OW76665   7.395   0.813   4.674  0.7222  0.6071 -0.1723
25075SOL    HW176666   7.420   0.722   4.658  0.7175  0.8620 -1.7046
25075SOL    HW276667   7.308   0.821   4.637  0.1956  0.9344  1.0781
25076SOL     OW76668   7.039   1.256   4.299  0.0503 -0.2217 -0.1058
25076SOL    HW176669   7.048   1.290   4.209 -1.4217 -0.2311 -0.2739
25076SOL    HW276670   7.040   1.334   4.354  1.9887 -0.2630  0.0096
25077SOL     OW76671   6.497   4.818   5.595 -0.1664 -0.0144  0.1096
25077SOL    HW176672   6.592   4.819   5.601 -0.1532 -0.4094  0.0124
25077SOL    HW276673   6.467   4.803   5.684 -0.1592  0.8415  0.2583
25078SOL     OW76674   7.908   6.846   4.689  0.2286 -0.3027  0.2700
25078SOL    HW176675   7.987   6.805   4.654  0.4661  0.9745 -0.7708
25078SOL    HW276676   7.936   6.935   4.711 -0.5752 -0.2824  1.2997
25079SOL     OW76677   6.216   7.200   4.223  0.2384  0.0148  0.2173
25079SOL    HW176678   6.163   7.280   4.220 -1.0197 -0.7928 -0.0225
25079SOL    HW276679   6.209   7.163   4.134 -1.2357 -1.5841  0.9190
25080SOL     OW76680   7.138   4.771   5.241  0.7747 -0.7380 -0.4361
25080SOL    HW176681   7.201   4.836   5.211 -0.1850  0.6554  0.4394
25080SOL    HW276682   7.131   4.786   5.335 -0.7364 -0.9503 -0.4887
25081SOL     OW76683   0.556   6.387   5.439 -0.1690  0.0993 -0.6439
25081SOL    HW176684   0.598   6.473   5.447  0.0372 -0.0909  0.4740
25081SOL    HW276685   0.588   6.352   5.355 -1.8973  1.9596 -2.1797
25082SOL     OW76686   7.406   3.937   6.306  0.3102  0.4503 -0.4128
25082SOL    HW176687   7.336   3.956   6.244 -1.3484  0.1808  1.2771
25082SOL    HW276688   7.486   3.956   6.259 -0.9617  3.0062 -1.7054
25083SOL     OW76689   0.236   4.506   3.639 -0.1231  0.1580  0.2737
25083SOL    HW176690   0.207   4.436   3.697 -0.4098  0.4259  0.4585
25083SOL    HW276691   0.224   4.586   3.690 -1.3330  0.5029 -0.5042
25084SOL     OW76692   7.605   0.003   4.439  0.1258 -0.5759 -0.1795
25084SOL    HW176693   7.656   0.035   4.512 -1.1795 -0.1762  0.5926
25084SOL    HW276694   7.638  -0.086   4.424  0.6131 -0.5528  0.6991
25085SOL     OW76695   6.369   0.026   6.380  0.2786 -0.2653  0.3378
25085SOL    HW176696   6.383  -0.042   6.446 -1.0952 -0.8786  0.0273
25085SOL    HW276697   6.312   0.089   6.423 -0.0659 -0.3224 -0.0353
25086SOL     OW76698   6.580   4.927   4.066 -0.4092 -0.4933 -0.2736
25086SOL    HW176699   6.633   4.953   3.990  1.3679 -1.7609  0.4526
25086SOL    HW276700   6.599   4.833   4.077 -1.5939 -0.6145  0.9995
25087SOL     OW76701   0.219   6.729   4.902  0.0652  0.4619  0.4851
25087SOL    HW176702   0.161   6.790   4.949 -0.1441  0.6791 -0.0557
25087SOL    HW276703   0.275   6.693   4.971 -2.5520 -1.9729  1.5652
25088SOL     OW76704   0.215   5.284   5.890  0.1016 -0.8065 -0.5093
25088SOL    HW176705   0.236   5.331   5.971 -1.3958 -1.3567  0.2552
25088SOL    HW276706   0.228   5.191   5.913  1.1897 -0.8936 -1.4090
25089SOL     OW76707   0.526   5.889   5.507 -0.1699  0.2280 -0.1347
25089SOL    HW176708   0.494   5.829   5.440 -0.1518 -0.1991  0.2349
25089SOL    HW276709   0.570   5.833   5.571  0.8074  0.7378 -0.3275
25090SOL     OW76710   6.991   5.779   4.534  0.2993  0.1380  0.0745
25090SOL    HW176711   7.037   5.708   4.489  1.5661 -0.3367  2.0123
25090SOL    HW276712   7.055   5.849   4.541 -0.2106  0.5996  0.2166
25091SOL     OW76713   7.622   7.587   4.657 -0.5461  0.1022 -0.4405
25091SOL    HW176714   7.540   7.545   4.633 -1.6428  0.9029  1.5920
25091SOL    HW276715   7.596   7.656   4.718  1.5138  1.3987 -0.9377
25092SOL     OW76716   0.147   7.219   2.851 -0.1656 -0.1470 -0.2574
25092SOL    HW176717   0.110   7.130   2.846  1.5427 -0.8946 -0.4760
25092SOL    HW276718   0.242   7.204   2.856  0.0750  1.6290  1.4403
25093SOL     OW76719   0.321   6.486   3.554  0.4776 -0.1461  0.3519
25093SOL    HW176720   0.382   6.413   3.554 -0.8209 -1.2736  0.7338
25093SOL    HW276721   0.240   6.450   3.592 -0.4069  1.3027 -0.0763
25094SOL     OW76722   7.490   6.183   3.973  0.0775  0.4729 -0.1682
25094SOL    HW176723   7.512   6.257   4.029 -0.9952 -0.0794  1.0306
25094SOL    HW276724   7.558   6.182   3.906  1.9416  0.6208  1.6383
25095SOL     OW76725   0.303   0.130   6.329  0.5308  0.0233 -0.0974
25095SOL    HW176726   0.358   0.089   6.262  0.5124  0.7555 -0.5730
25095SOL    HW276727   0.240   0.061   6.353  1.3855 -0.6808  0.1577
25096SOL     OW76728   0.173   7.155   4.218  0.0721  0.1873 -0.0535
25096SOL    HW176729   0.085   7.186   4.237 -0.2156 -0.4530 -0.2778
25096SOL    HW276730   0.179   7.158   4.122  0.2023  0.0137 -0.0525
25097SOL     OW76731   0.054   6.445   5.787  0.4900  0.4332  0.6691
25097SOL    HW176732   0.092   6.362   5.759  0.1932  0.4027  0.3540
25097SOL    HW276733   0.113   6.511   5.752 -0.7478  0.4849 -1.5132
25098SOL     OW76734   0.535   6.053   4.425  0.1392  0.2527 -0.0588
25098SOL    HW176735   0.534   5.978   4.366  0.0301  0.6348 -0.5489
25098SOL    HW276736   0.518   6.016   4.511  0.3876 -0.3239 -0.2507
25099SOL     OW76737   6.025   7.303   3.627 -0.0871 -0.0083 -0.2877
25099SOL    HW176738   6.091   7.343   3.569 -1.6474 -0.8892 -2.8378
25099SOL    HW276739   6.050   7.211   3.632 -0.2170 -0.0247  0.0822
25100SOL     OW76740   1.135   1.490   4.283 -0.5054  0.2843  0.0974
25100SOL    HW176741   1.067   1.491   4.350 -1.7150  0.2497 -1.0950
25100SOL    HW276742   1.136   1.579   4.248  0.0215  0.2609  0.0377
25101SOL     OW76743   0.338   6.519   4.269 -0.0510  0.0962 -0.1832
25101SOL    HW176744   0.247   6.491   4.265 -0.3422  1.0619 -0.5376
25101SOL    HW276745   0.388   6.438   4.261 -0.8742 -0.3666 -0.7910
25102SOL     OW76746   0.561   6.500   4.081 -0.1530 -0.1526  0.2029
25102SOL    HW176747   0.542   6.409   4.060  1.0983 -0.2608 -0.5902
25102SOL    HW276748   0.491   6.550   4.040 -0.8025 -0.7480  0.5776
25103SOL     OW76749   7.782   7.427   5.091 -0.0385 -0.1779 -0.5389
25103SOL    HW176750   7.821   7.371   5.024 -0.6861 -1.0238 -0.2187
25103SOL    HW276751   7.760   7.368   5.163  0.0515  0.6201  0.1655
25104SOL     OW76752   7.626   5.027   5.682  0.2003  0.9518  0.4392
25104SOL    HW176753   7.588   4.954   5.632  1.7192  1.1870 -1.1589
25104SOL    HW276754   7.635   4.992   5.771 -0.8306 -0.1517  0.1405
25105SOL     OW76755   1.041   5.213   5.375 -0.2187  0.3255  0.3437
25105SOL    HW176756   0.955   5.194   5.410 -1.6102  2.5809 -1.4870
25105SOL    HW276757   1.060   5.303   5.404  1.1233  0.1766  0.0229
25106SOL     OW76758   0.021   6.735   6.383  0.4219 -0.4234 -0.1551
25106SOL    HW176759   0.080   6.809   6.372  0.5983 -0.6693 -0.9574
25106SOL    HW276760  -0.067   6.772   6.375  0.4681 -0.1107  0.6995
25107SOL     OW76761   0.625   5.708   5.672  0.1591 -0.0064 -0.8335
25107SOL    HW176762   0.669   5.763   5.736 -1.0068  1.1311 -0.9796
25107SOL    HW276763   0.549   5.672   5.718 -1.2918  1.6619 -1.8029
25108SOL     OW76764   0.335   7.725   6.006  0.4814  0.3819 -0.1582
25108SOL    HW176765   0.278   7.769   6.070 -1.4029 -1.0070 -0.7885
25108SOL    HW276766   0.387   7.664   6.059  0.1318  0.4192  0.2387
25109SOL     OW76767   5.991   4.520   5.090 -0.2909  0.1174 -0.1300
25109SOL    HW176768   6.052   4.482   5.027  0.3962  3.2344 -1.5399
25109SOL    HW276769   5.905   4.498   5.055  0.0383 -0.8189 -0.4038
25110SOL     OW76770   7.300   5.137   5.845  0.2639 -0.1855 -0.1008
25110SOL    HW176771   7.252   5.209   5.805 -1.5959 -2.1326 -1.6492
25110SOL    HW276772   7.254   5.120   5.927  0.7905  0.4523  0.3331
25111SOL     OW76773   0.277   7.818   4.208 -0.2528 -0.5850 -0.3978
25111SOL    HW176774   0.365   7.828   4.173  0.1519  0.8612  0.9428
25111SOL    HW276775   0.240   7.906   4.206 -1.7313 -1.1885 -1.0288
25112SOL     OW76776   1.818   6.925   4.453  0.2125 -0.6182 -0.1632
25112SOL    HW176777   1.745   6.863   4.464  1.0170 -1.3264  1.4385
25112SOL    HW276778   1.883   6.875   4.403  0.0676 -0.3635 -0.6156
25113SOL     OW76779   0.115   7.989   5.424  0.4443 -0.5272  0.1362
25113SOL    HW176780   0.144   7.924   5.360  2.6729  0.2847  0.2600
25113SOL    HW276781   0.107   7.940   5.505  3.3459 -0.5131  0.5239
25114SOL     OW76782   7.523   0.428   5.208 -0.3688  0.2684 -0.2200
25114SOL    HW176783   7.430   0.451   5.199 -0.2097  0.7990 -0.6061
25114SOL    HW276784   7.563   0.507   5.245  0.1506  0.5470 -1.3372
25115SOL     OW76785   0.685   6.206   4.070  0.3250 -0.2514  0.4388
25115SOL    HW176786   0.775   6.173   4.077  1.0106  0.6880 -2.3921
25115SOL    HW276787   0.651   6.165   3.991 -0.9902  1.0063  0.3046
25116SOL     OW76788   0.403   5.708   5.343  0.2384  0.2208 -0.5042
25116SOL    HW176789   0.320   5.689   5.386  0.5049  0.2762  0.0376
25116SOL    HW276790   0.431   5.624   5.306  1.3107 -0.4583  1.6940
25117SOL     OW76791   7.952   7.252   4.930 -0.5738  0.6465 -0.3207
25117SOL    HW176792   7.926   7.293   4.848 -1.0288  0.1737 -0.4225
25117SOL    HW276793   8.041   7.220   4.914  0.0870  2.2239  0.0088
25118SOL     OW76794   7.178   7.816   3.716  0.3817 -0.4691  0.3598
25118SOL    HW176795   7.203   7.800   3.625 -1.2984 -1.7139  0.0792
25118SOL    HW276796   7.187   7.911   3.727  0.3953 -0.2719 -1.1686
25119SOL     OW76797   0.036   6.381   5.532 -0.3531 -0.0712  0.5431
25119SOL    HW176798  -0.037   6.327   5.560  0.1791 -0.1039  1.9529
25119SOL    HW276799   0.015   6.469   5.562 -0.1153  0.0506  0.3677
25120SOL     OW76800   6.940   7.574   5.075 -0.3357 -0.6721  0.2939
25120SOL    HW176801   6.954   7.490   5.030  0.9499 -0.3646  0.0816
25120SOL    HW276802   6.859   7.562   5.123  0.3431 -2.4109  1.0827
25121SOL     OW76803   1.282   5.500   6.531  0.2100 -0.0741  0.2528
25121SOL    HW176804   1.238   5.421   6.498 -1.5275  1.6954 -2.0682
25121SOL    HW276805   1.348   5.520   6.465  1.0594  0.1195  1.1387
25122SOL     OW76806   0.699   6.572   5.218  0.3160  0.2081 -0.1894
25122SOL    HW176807   0.788   6.536   5.224  0.4527  0.3844 -0.9662
25122SOL    HW276808   0.692   6.631   5.293  1.3122  1.1421 -0.7904
25123SOL     OW76809   7.158   6.491   5.919 -0.2312 -0.1571 -0.0763
25123SOL    HW176810   7.077   6.444   5.898  0.6571 -0.9018 -2.0593
25123SOL    HW276811   7.149   6.575   5.873  0.2063 -0.3372 -0.5003
25124SOL     OW76812   7.983   0.217   5.071  0.0799 -0.1794  0.0857
25124SOL    HW176813   7.919   0.262   5.016  2.5443  0.3007 -2.6436
25124SOL    HW276814   8.036   0.287   5.109  1.0150 -0.6107 -0.3829
25125SOL     OW76815   0.926   7.653   4.430  0.2365  0.5270  0.5242
25125SOL    HW176816   0.965   7.591   4.369  2.0177  1.4387  0.6784
25125SOL    HW276817   0.834   7.627   4.435  0.8862 -2.0136  0.5079
25126SOL     OW76818   7.574   7.065   6.352  0.2619  0.4225  0.1052
25126SOL    HW176819   7.551   7.094   6.440 -0.2264  0.2272  0.0414
25126SOL    HW276820   7.610   7.144   6.310  1.0732  0.3619  0.6728
25127SOL     OW76821   0.849   0.017   4.343 -0.4582  0.4013  0.2957
25127SOL    HW176822   0.941   0.041   4.330 -0.1651 -0.7807  0.1213
25127SOL    HW276823   0.814   0.005   4.255 -0.7520  0.6990  0.3663
25128SOL     OW76824   7.531   5.783   2.486 -0.4206 -0.2179 -0.3014
25128SOL    HW176825   7.550   5.728   2.410 -0.7006 -3.1325  1.5458
25128SOL    HW276826   7.588   5.859   2.476  1.3644 -1.6829 -2.1763
25129SOL     OW76827   0.724   0.169   4.533  0.2373 -0.2465  0.0601
25129SOL    HW176828   0.719   0.260   4.504 -0.1539 -0.2755  0.0245
25129SOL    HW276829   0.760   0.122   4.458 -0.3890 -0.2571 -0.2367
25130SOL     OW76830   7.803   7.612   5.926  0.4407 -0.1334 -0.0565
25130SOL    HW176831   7.894   7.620   5.957  0.8023 -1.1207 -0.7806
25130SOL    HW276832   7.811   7.561   5.845 -0.8142 -0.6780  0.1505
25131SOL     OW76833   7.710   6.887   3.716  0.2233  0.1969  0.1211
25131SOL    HW176834   7.684   6.810   3.665 -0.3046 -0.2511  1.0321
25131SOL    HW276835   7.652   6.957   3.686 -1.2345 -0.4771  1.2413
25132SOL     OW76836   1.098   5.869   6.725 -0.5085 -0.3413 -0.5960
25132SOL    HW176837   1.192   5.868   6.706 -0.3000  1.8746  0.0058
25132SOL    HW276838   1.061   5.805   6.664  1.4611 -1.9639 -0.2242
25133SOL     OW76839   6.238   5.075   6.294 -0.1352  0.0292 -0.0421
25133SOL    HW176840   6.254   5.040   6.382 -0.1502  0.2142  0.0355
25133SOL    HW276841   6.276   5.010   6.235 -1.4465 -0.8657  0.0312
25134SOL     OW76842   7.938   6.104   5.024 -0.2050 -0.2224  0.1029
25134SOL    HW176843   7.871   6.093   5.092 -1.2908  1.7835 -0.5734
25134SOL    HW276844   7.983   6.186   5.048  0.1435 -0.0825 -0.9852
25135SOL     OW76845   6.694   5.430   6.653  0.2380 -0.1639 -0.7712
25135SOL    HW176846   6.636   5.506   6.650 -1.2945 -1.2700 -0.4971
25135SOL    HW276847   6.667   5.382   6.731  1.1612 -1.0184 -0.9525
25136SOL     OW76848   0.194   6.070   8.293 -0.1140  0.0900  0.2277
25136SOL    HW176849   0.278   6.069   8.246  0.2436  1.3467  0.8020
25136SOL    HW276850   0.130   6.096   8.227  0.5133  2.7178  0.5427
25137SOL     OW76851   2.085   5.284   5.556 -0.4843  0.3261  0.1431
25137SOL    HW176852   2.141   5.279   5.634 -1.0501 -0.6836  0.5063
25137SOL    HW276853   2.146   5.291   5.483  0.0621  1.1463  0.6605
25138SOL     OW76854   7.044   6.899   5.115 -0.7220 -0.4240  0.3557
25138SOL    HW176855   7.082   6.811   5.123  0.6715  0.1250  0.1876
25138SOL    HW276856   6.983   6.892   5.042  1.9282 -0.4889 -2.0493
25139SOL     OW76857   7.708   5.189   8.848  0.0125  0.5521 -0.3114
25139SOL    HW176858   7.626   5.230   8.875  0.1512  0.4322  0.3047
25139SOL    HW276859   7.689   5.096   8.845 -0.1017  0.5899 -1.0060
25140SOL     OW76860   0.847   6.013   5.762 -0.5283  0.7234  0.5146
25140SOL    HW176861   0.790   6.077   5.805 -3.1196 -1.0511 -0.0301
25140SOL    HW276862   0.851   5.940   5.824 -0.4515  0.0412 -0.2851
25141SOL     OW76863   6.712   7.567   5.242 -0.2484  0.2593 -0.3669
25141SOL    HW176864   6.726   7.549   5.335  0.7220  1.6177 -0.2262
25141SOL    HW276865   6.658   7.493   5.211 -0.7619 -0.1054  1.3013
25142SOL     OW76866   5.885   7.357   6.135  0.3682 -0.2387 -0.1877
25142SOL    HW176867   5.932   7.279   6.108  0.9136 -0.4160  1.1873
25142SOL    HW276868   5.927   7.384   6.217 -0.9537  0.4666  0.2945
25143SOL     OW76869   0.602   5.202   5.353 -0.6889  0.1608 -0.0693
25143SOL    HW176870   0.510   5.189   5.376 -0.3044 -0.2818  1.3209
25143SOL    HW276871   0.620   5.134   5.288 -1.0020 -0.6655  0.6764
25144SOL     OW76872   1.284   7.243   5.491 -0.0555 -0.1645 -0.2985
25144SOL    HW176873   1.213   7.236   5.554  0.9028 -1.0734  0.7332
25144SOL    HW276874   1.266   7.175   5.426 -0.5819  0.1957 -0.5369
25145SOL     OW76875   7.348   6.070   7.008  0.4750 -0.0508 -0.4389
25145SOL    HW176876   7.369   5.977   7.021  1.1118  0.2676  0.9129
25145SOL    HW276877   7.416   6.101   6.948  1.5008  0.0152  0.7315
25146SOL     OW76878   7.719   6.590   6.463 -0.6860  0.0176 -0.2302
25146SOL    HW176879   7.639   6.548   6.496  0.3928 -1.9216  0.1168
25146SOL    HW276880   7.721   6.567   6.370 -0.3430 -0.2949 -0.1486
25147SOL     OW76881   1.198   5.245   7.184  0.2227 -0.0503 -0.1246
25147SOL    HW176882   1.204   5.150   7.194  0.2394 -0.2710 -1.9305
25147SOL    HW276883   1.276   5.279   7.226 -0.3053 -0.7383  1.4837
25148SOL     OW76884   1.434   0.293   6.614  0.0200 -0.2963 -0.7632
25148SOL    HW176885   1.373   0.336   6.554 -2.8199 -1.8861  0.7459
25148SOL    HW276886   1.403   0.203   6.618  0.6549 -0.4761  2.3591
25149SOL     OW76887   0.675   5.847   6.933 -0.3971  0.6680  0.2684
25149SOL    HW176888   0.642   5.798   6.857  0.8008  1.5984 -0.8999
25149SOL    HW276889   0.753   5.799   6.959  0.5847  1.7070 -0.6623
25150SOL     OW76890   7.277   5.855   6.699 -0.6633 -0.2162 -0.3231
25150SOL    HW176891   7.320   5.793   6.758 -0.5743  1.3079  1.3050
25150SOL    HW276892   7.212   5.899   6.754  0.5418  2.4135 -0.8584
25151SOL     OW76893   6.797   5.501   4.998 -0.3614 -0.0892 -0.2261
25151SOL    HW176894   6.815   5.593   4.979 -0.8256  0.0759  0.1180
25151SOL    HW276895   6.882   5.464   5.022 -0.3659  0.5471  0.8512
25152SOL     OW76896   7.247   5.121   8.180 -0.4894  0.0763 -0.7495
25152SOL    HW176897   7.154   5.145   8.173 -0.6380 -0.2615  0.0056
25152SOL    HW276898   7.285   5.149   8.096 -1.8370 -2.3572 -2.3053
25153SOL     OW76899   7.736   5.949   5.476 -0.5021 -0.0552  0.4409
25153SOL    HW176900   7.688   6.011   5.530 -0.7274  0.0747  0.0980
25153SOL    HW276901   7.702   5.963   5.388 -1.4684 -1.5282  0.5484
25154SOL     OW76902   6.292   6.618   6.645  0.5681  0.0223  0.5867
25154SOL    HW176903   6.251   6.604   6.559  1.0711 -1.3304  0.5497
25154SOL    HW276904   6.333   6.705   6.638  0.6547 -0.0959 -0.5647
25155SOL     OW76905   7.407   5.530   6.521  1.0077  0.3865  0.3843
25155SOL    HW176906   7.332   5.472   6.528 -0.8929  2.7399  0.8241
25155SOL    HW276907   7.444   5.512   6.434  0.3673 -1.2410  0.4156
25156SOL     OW76908   5.982   7.724   6.914  0.6205 -0.0826 -1.0291
25156SOL    HW176909   5.905   7.777   6.893  0.2723  0.9971  2.3163
25156SOL    HW276910   5.968   7.697   7.005  3.9719 -0.2096 -0.4149
25157SOL     OW76911   0.715   4.906   7.198 -0.0331  0.3795 -0.5442
25157SOL    HW176912   0.805   4.935   7.210  0.4259 -0.2075 -2.2266
25157SOL    HW276913   0.683   4.958   7.124  0.2365 -2.0400 -2.4837
25158SOL     OW76914   1.128   6.410   4.298 -0.0131  0.3769  0.2723
25158SOL    HW176915   1.055   6.370   4.344  0.1627  0.3209  0.5045
25158SOL    HW276916   1.204   6.357   4.322  0.1810  0.7071  0.3994
25159SOL     OW76917   0.411   6.036   8.125  0.0275 -0.4364 -0.0833
25159SOL    HW176918   0.489   6.062   8.076 -0.3023  1.0763  0.1487
25159SOL    HW276919   0.346   6.016   8.058  0.4927 -1.3630 -0.2740
25160SOL     OW76920   0.811   5.084   5.123  0.0516 -0.1733 -0.1998
25160SOL    HW176921   0.824   5.152   5.057 -0.9389  0.2215  0.0128
25160SOL    HW276922   0.834   5.003   5.077 -1.0256  0.0492 -1.1757
25161SOL     OW76923   0.298   5.863   6.872  0.1663 -0.3790 -0.8636
25161SOL    HW176924   0.341   5.800   6.931  1.0867  0.8848 -0.1476
25161SOL    HW276925   0.363   5.880   6.804  0.5684  1.0274 -0.1509
25162SOL     OW76926   7.319   4.297   5.591  0.4839 -0.1906  0.0543
25162SOL    HW176927   7.310   4.321   5.683  1.4027 -0.6541  0.2710
25162SOL    HW276928   7.341   4.204   5.592  1.5442  0.0363 -0.5832
25163SOL     OW76929   0.646   5.056   6.971 -0.4009 -0.1747  0.6918
25163SOL    HW176930   0.670   5.147   6.987  1.6738 -0.6870  0.7754
25163SOL    HW276931   0.580   5.061   6.902 -0.4501  1.3959  0.8133
25164SOL     OW76932   7.480   4.901   7.426  0.7751  0.1153 -0.1425
25164SOL    HW176933   7.398   4.916   7.380  0.5762  0.4123  0.2983
25164SOL    HW276934   7.547   4.899   7.357  0.6177  1.5547 -0.3758
25165SOL     OW76935   0.225   6.952   6.440  0.3672 -0.2274  0.1805
25165SOL    HW176936   0.186   6.992   6.363  0.0821  0.3348  0.6064
25165SOL    HW276937   0.319   6.962   6.428  0.3191  2.4016  1.1671
25166SOL     OW76938   1.366   7.680   6.691  0.8105  0.3960  0.6849
25166SOL    HW176939   1.311   7.745   6.647  0.3410 -1.2074 -1.2242
25166SOL    HW276940   1.450   7.685   6.645  0.7717 -0.3110  0.5263
25167SOL     OW76941   7.483   6.024   6.645  0.1561  0.2643 -0.2867
25167SOL    HW176942   7.546   5.961   6.610  0.0994  0.2617 -0.3826
25167SOL    HW276943   7.409   5.972   6.676 -0.0264  0.3082 -0.6519
25168SOL     OW76944   7.702   6.554   6.196 -0.2897 -0.2042 -0.3192
25168SOL    HW176945   7.695   6.645   6.167 -1.1097 -0.4759 -0.9948
25168SOL    HW276946   7.778   6.520   6.148 -0.3420 -0.0466 -0.5160
25169SOL     OW76947   7.722   5.363   8.495 -0.5079  0.1298  0.0134
25169SOL    HW176948   7.633   5.378   8.464 -0.6892  1.5024  1.1074
25169SOL    HW276949   7.726   5.269   8.512 -2.1090  0.1871  0.9376
25170SOL     OW76950   7.994   5.513   7.732  0.1132  0.3110  0.1137
25170SOL    HW176951   8.065   5.493   7.793 -2.1200 -2.2146  2.1788
25170SOL    HW276952   7.989   5.436   7.675 -0.2046  1.0055 -0.8184
25171SOL     OW76953   7.878   6.365   6.770  0.3288  0.0652 -0.4546
25171SOL    HW176954   7.806   6.341   6.828 -1.0668  1.6339 -1.4445
25171SOL    HW276955   7.898   6.284   6.722  0.1789 -0.7368  0.7797
25172SOL     OW76956   6.776   4.624   6.199 -0.0977 -0.2594 -0.5774
25172SOL    HW176957   6.731   4.544   6.171  0.9888 -1.0283 -0.2266
25172SOL    HW276958   6.776   4.619   6.295  1.3936 -0.6889 -0.5768
25173SOL     OW76959   0.066   7.044   6.239 -0.0048  0.2207 -0.1015
25173SOL    HW176960  -0.025   7.019   6.256 -0.1150  0.1899 -0.7477
25173SOL    HW276961   0.060   7.122   6.184  0.3594  0.5233  0.2740
25174SOL     OW76962   0.276   5.127   6.588 -1.3134  0.0222  0.4799
25174SOL    HW176963   0.190   5.094   6.617 -1.3759  0.1493  0.4400
25174SOL    HW276964   0.257   5.213   6.552 -0.9629  0.6952  1.8250
25175SOL     OW76965   7.170   5.701   8.814  0.0483  0.0456 -0.2969
25175SOL    HW176966   7.201   5.638   8.879 -1.4933 -0.6897 -0.2156
25175SOL    HW276967   7.227   5.689   8.739 -0.4711 -1.8064 -0.4429
25176SOL     OW76968   0.823   6.117   4.909  0.2442 -0.1205 -0.5143
25176SOL    HW176969   0.760   6.121   4.981  0.1383 -0.2661 -0.5984
25176SOL    HW276970   0.894   6.063   4.942 -0.5276 -1.5358 -1.0682
25177SOL     OW76971   1.331   6.461   7.092 -0.1712  0.7785  0.7433
25177SOL    HW176972   1.422   6.440   7.070 -0.6993  0.8271 -1.8316
25177SOL    HW276973   1.334   6.552   7.121  0.6077  0.7951  0.6383
25178SOL     OW76974   7.629   0.262   6.489 -0.5281 -0.1264  0.3376
25178SOL    HW176975   7.624   0.172   6.456  0.7087 -0.6594  1.4869
25178SOL    HW276976   7.552   0.271   6.545  0.6310 -1.4007  2.2657
25179SOL     OW76977   6.491   6.022   6.304 -0.3214  0.0453 -0.1155
25179SOL    HW176978   6.446   6.056   6.227  0.5818  0.3919 -0.5083
25179SOL    HW276979   6.436   5.950   6.334  0.0720 -1.0955 -1.9775
25180SOL     OW76980   1.533   5.280   6.308  0.6041  0.7174  0.4407
25180SOL    HW176981   1.547   5.372   6.331 -0.1198  0.8493  0.3835
25180SOL    HW276982   1.535   5.279   6.213 -0.7597  0.9283  0.3797
25181SOL     OW76983   1.893   5.483   7.458 -0.1532  0.4178 -0.3291
25181SOL    HW176984   1.866   5.431   7.383  3.2440 -2.0647 -0.0680
25181SOL    HW276985   1.970   5.531   7.428  1.8717 -1.3643  1.6499
25182SOL     OW76986   7.664   5.288   5.734  0.2809 -0.0349  0.4958
25182SOL    HW176987   7.621   5.203   5.719  1.3385 -0.4494 -0.3373
25182SOL    HW276988   7.602   5.352   5.697 -0.2189 -0.5003  0.5038
25183SOL     OW76989   0.194   5.320   7.504 -0.1356 -0.2949 -0.3882
25183SOL    HW176990   0.098   5.314   7.513 -0.0720 -0.5174  0.2504
25183SOL    HW276991   0.227   5.276   7.582  0.4961 -0.4894 -0.7623
25184SOL     OW76992   6.140   0.729   6.197  0.1929  0.0167 -0.0216
25184SOL    HW176993   6.207   0.766   6.139  1.5388 -2.7460 -0.3892
25184SOL    HW276994   6.085   0.676   6.140  0.8525 -1.8509  0.9903
25185SOL     OW76995   0.277   7.197   4.644 -0.1236 -0.0543 -0.1225
25185SOL    HW176996   0.364   7.175   4.676 -1.0535  0.5427  3.2111
25185SOL    HW276997   0.260   7.133   4.575  1.6047 -2.4670  1.5176
25186SOL     OW76998   5.285   7.583   6.834  0.3558  0.8999 -0.2439
25186SOL    HW176999   5.215   7.618   6.779  0.0103  0.4698 -0.0884
25186SOL    HW277000   5.292   7.491   6.808  0.3537  0.7540  0.2637
25187SOL     OW77001   6.478   3.442   4.507 -0.1924 -0.2265 -0.2893
25187SOL    HW177002   6.474   3.420   4.414 -0.3151 -0.1198 -0.3078
25187SOL    HW277003   6.572   3.454   4.524 -0.2077  0.2204 -0.5050
25188SOL     OW77004   0.118   6.526   8.539  0.4393  0.2175 -0.3624
25188SOL    HW177005   0.113   6.436   8.507  1.2473 -0.1464  0.5209
25188SOL    HW277006   0.133   6.518   8.633 -0.6535  1.2789 -0.0618
25189SOL     OW77007   6.431   7.284   7.224  0.3906  0.4831  0.6641
25189SOL    HW177008   6.367   7.215   7.207  0.9645 -0.3347  1.7210
25189SOL    HW277009   6.401   7.327   7.304 -0.0590  1.6059 -0.0746
25190SOL     OW77010   0.195   7.728   4.675  0.2016 -0.0918 -0.1743
25190SOL    HW177011   0.266   7.763   4.621 -1.0673  1.7962 -0.7156
25190SOL    HW277012   0.239   7.676   4.742  1.9790 -0.3430 -1.4740
25191SOL     OW77013   6.263   7.633   6.235 -0.0735 -0.0496  0.3693
25191SOL    HW177014   6.201   7.611   6.165 -1.2420  0.7238  1.1096
25191SOL    HW277015   6.295   7.720   6.211  1.0045 -0.5860 -0.1816
25192SOL     OW77016   6.833   4.244   6.207 -0.3630  0.6025 -0.2502
25192SOL    HW177017   6.766   4.194   6.161  0.0476 -0.6189  0.4364
25192SOL    HW277018   6.797   4.257   6.295 -0.3193  1.2305 -0.3198
25193SOL     OW77019   7.728   4.356   5.045  0.3389  0.4092 -0.5643
25193SOL    HW177020   7.685   4.378   5.127 -0.3703 -1.0081 -0.5292
25193SOL    HW277021   7.661   4.374   4.978  0.8537  1.3875 -0.8381
25194SOL     OW77022   7.592   7.789   5.987 -0.5536  0.4257  0.1096
25194SOL    HW177023   7.598   7.859   5.921 -0.1655  1.2210  0.9636
25194SOL    HW277024   7.663   7.729   5.964 -0.4435  0.6810 -0.2259
25195SOL     OW77025   7.929   0.593   6.924  0.4333  0.4532 -0.3341
25195SOL    HW177026   7.856   0.650   6.945  0.5269  0.2853  0.5141
25195SOL    HW277027   7.918   0.571   6.832 -1.9051 -1.4178  0.2987
25196SOL     OW77028   6.398   5.516   5.942  0.1786  0.1748  0.2861
25196SOL    HW177029   6.445   5.507   6.024  0.1596  0.1860  0.2980
25196SOL    HW277030   6.465   5.542   5.879  0.2583 -0.1628  0.2258
25197SOL     OW77031   7.424   0.342   6.698  0.4097  0.4158 -0.0397
25197SOL    HW177032   7.333   0.315   6.680  0.5760 -1.0304  1.1181
25197SOL    HW277033   7.415   0.425   6.745 -0.1864  1.5902 -2.0870
25198SOL     OW77034   0.557   5.062   9.047  0.5385 -0.5721 -0.0844
25198SOL    HW177035   0.560   4.974   9.084 -1.3835 -1.6040 -2.1385
25198SOL    HW277036   0.463   5.083   9.042  0.9654  2.4955  2.2283
25199SOL     OW77037   7.606   5.118   6.011 -0.1754  0.5331  0.3247
25199SOL    HW177038   7.515   5.125   5.981  0.0947  2.2334 -0.2329
25199SOL    HW277039   7.607   5.042   6.068 -2.3807  1.4863  1.7868
25200SOL     OW77040   0.980   4.911   6.470 -0.1793 -0.0322  0.2768
25200SOL    HW177041   0.968   5.002   6.445 -1.2756 -0.1281  0.4181
25200SOL    HW277042   0.910   4.894   6.533 -0.4441 -1.1678 -0.2965
25201SOL     OW77043   7.979   5.222   8.305 -0.1986  0.0397  0.5905
25201SOL    HW177044   8.015   5.250   8.222  1.8211 -1.7004  0.8030
25201SOL    HW277045   7.961   5.128   8.293  2.2012 -0.8066  2.6674
25202SOL     OW77046   7.205   6.333   7.787  0.8848  0.4663 -0.2694
25202SOL    HW177047   7.204   6.239   7.767  0.9673  0.4491 -0.1997
25202SOL    HW277048   7.275   6.342   7.853  0.7772  0.5535 -0.1670
25203SOL     OW77049   6.433   7.886   8.058 -0.8961  0.0263 -0.3704
25203SOL    HW177050   6.386   7.956   8.103  0.0983  0.3146  0.2418
25203SOL    HW277051   6.519   7.922   8.040 -0.7485 -0.6495 -1.0879
25204SOL     OW77052   7.887   6.574   7.326  0.0007 -0.0726  0.4341
25204SOL    HW177053   7.959   6.577   7.389 -0.2701 -1.0227  0.7982
25204SOL    HW277054   7.929   6.550   7.243  0.3809  1.3422  0.1802
25205SOL     OW77055   0.219   7.203   6.792 -0.2770  0.1078 -0.1341
25205SOL    HW177056   0.278   7.138   6.830 -0.4716  0.5281  0.9188
25205SOL    HW277057   0.148   7.151   6.753  0.0509 -0.3444 -0.1380
25206SOL     OW77058   7.416   0.100   7.630  0.3857 -0.3277 -0.1875
25206SOL    HW177059   7.478   0.057   7.571 -0.3870 -1.5813 -0.1261
25206SOL    HW277060   7.330   0.078   7.594 -0.0970 -0.7999  1.1880
25207SOL     OW77061   7.079   7.188   9.449  0.2469 -0.2359  0.3945
25207SOL    HW177062   7.053   7.211   9.538  0.0052 -1.7761  0.7496
25207SOL    HW277063   6.996   7.165   9.406 -0.0527  3.0672 -1.1155
25208SOL     OW77064   6.807   1.863   7.814  0.3031  0.0534 -0.0756
25208SOL    HW177065   6.761   1.876   7.897  0.3019  0.1188 -0.0864
25208SOL    HW277066   6.767   1.926   7.755  1.4194  1.1649  0.3203
25209SOL     OW77067   7.935   1.267   6.485  0.0416  0.1733  0.4708
25209SOL    HW177068   8.029   1.278   6.467 -0.1126  1.2647  0.2730
25209SOL    HW277069   7.893   1.339   6.438 -0.8384  0.0693  1.0759
25210SOL     OW77070   6.458   5.769   8.108  0.0856  0.5308 -0.8378
25210SOL    HW177071   6.447   5.844   8.166  1.3050 -0.1478  0.3134
25210SOL    HW277072   6.397   5.703   8.141 -1.4792  1.2038 -2.2592
25211SOL     OW77073   7.694   6.439   8.898  0.2698  0.7665 -0.1725
25211SOL    HW177074   7.664   6.479   8.979  0.2470 -0.1998  0.3131
25211SOL    HW277075   7.781   6.406   8.918  0.1532  0.2732 -0.4481
25212SOL     OW77076   6.797   4.541   7.190  0.5285 -0.2914  0.3312
25212SOL    HW177077   6.752   4.524   7.273  2.0367 -2.2373  0.8336
25212SOL    HW277078   6.801   4.456   7.147 -0.4253  0.7375 -1.9072
25213SOL     OW77079   6.962   6.847   7.310  0.0776  0.1588  0.1839
25213SOL    HW177080   6.979   6.757   7.282  0.9135  0.4289 -0.2036
25213SOL    HW277081   7.032   6.867   7.371 -0.9419  0.0609  1.4369
25214SOL     OW77082   5.827   6.435   7.705  0.3941 -0.2187  0.6613
25214SOL    HW177083   5.868   6.413   7.621 -0.5642 -1.0805  0.3941
25214SOL    HW277084   5.900   6.449   7.765  1.0865  0.0598 -0.2294
25215SOL     OW77085   0.062   7.386   8.226 -0.6050 -0.1598  0.4005
25215SOL    HW177086   0.048   7.324   8.154  0.7608  0.0256 -0.0549
25215SOL    HW277087   0.038   7.471   8.189 -1.8205 -0.3016  0.8125
25216SOL     OW77088   1.765   0.525   8.664  0.2343  0.4052  0.0071
25216SOL    HW177089   1.750   0.564   8.750 -1.7688  0.9834 -0.5694
25216SOL    HW277090   1.801   0.597   8.611  1.4209  0.0618  0.3106
25217SOL     OW77091   6.816   1.102   7.169  0.1643 -0.3527 -0.0550
25217SOL    HW177092   6.810   1.055   7.252 -1.4525 -0.1250  0.0028
25217SOL    HW277093   6.725   1.120   7.146  0.6710  3.0491  0.0878
25218SOL     OW77094   1.358   7.161   8.555  0.3665 -0.0273  0.2061
25218SOL    HW177095   1.346   7.089   8.493  1.0030  0.5207 -0.5629
25218SOL    HW277096   1.437   7.138   8.603 -0.1384 -0.4620  0.8520
25219SOL     OW77097   0.094   6.306   8.821  0.3107 -0.8730  0.2170
25219SOL    HW177098   0.183   6.310   8.786 -0.3644  0.1295 -1.5359
25219SOL    HW277099   0.050   6.240   8.766 -0.6016  0.2647 -0.4670
25220SOL     OW77100   7.057   0.593   8.813  0.4895  0.1502  0.0093
25220SOL    HW177101   7.107   0.661   8.768 -0.8347  0.9232 -0.3350
25220SOL    HW277102   7.121   0.550   8.870  1.8982  0.0576 -1.5652
25221SOL     OW77103   7.381   6.539   6.663 -0.3177  0.1001  0.2955
25221SOL    HW177104   7.382   6.463   6.720 -0.9791  0.8995  1.4009
25221SOL    HW277105   7.302   6.587   6.686 -0.4947  0.5684 -1.1462
25222SOL     OW77106   6.561   4.411   6.774 -0.2067 -0.7564 -0.4997
25222SOL    HW177107   6.485   4.392   6.718  0.2549 -0.5551 -1.2101
25222SOL    HW277108   6.566   4.506   6.774 -0.0077 -0.7691 -0.3820
25223SOL     OW77109   5.801   4.780   8.450  0.8024 -0.4795 -0.4222
25223SOL    HW177110   5.787   4.761   8.543  2.4908  0.0602 -0.0196
25223SOL    HW277111   5.895   4.799   8.443  0.5910  0.1384 -2.1313
25224SOL     OW77112   0.846   5.574   6.239  0.0459  0.1167  0.1698
25224SOL    HW177113   0.761   5.532   6.245  0.5892 -0.7479  3.0126
25224SOL    HW277114   0.830   5.666   6.259  0.0384 -0.5058  3.4860
25225SOL     OW77115   6.646   5.292   6.892 -0.1828  0.8432  0.1636
25225SOL    HW177116   6.610   5.292   6.981 -1.2487 -0.7376 -0.2415
25225SOL    HW277117   6.738   5.270   6.903 -0.4946 -0.1833  0.8277
25226SOL     OW77118   7.359   4.609   7.970 -0.0515  0.6963 -0.3281
25226SOL    HW177119   7.451   4.589   7.951 -0.0885  1.3683 -1.2798
25226SOL    HW277120   7.316   4.609   7.884 -0.5397  2.3071 -0.1130
25227SOL     OW77121   7.663   6.264   9.143  0.3254  0.3330  0.0438
25227SOL    HW177122   7.703   6.346   9.115  1.6511  0.3708  1.8684
25227SOL    HW277123   7.729   6.222   9.198 -0.3122 -1.9951 -0.8447
25228SOL     OW77124   7.909   7.794   7.563  0.8269 -0.5493 -0.1788
25228SOL    HW177125   7.899   7.703   7.534  1.6694 -0.2712 -1.3918
25228SOL    HW277126   7.996   7.819   7.533 -0.0028  1.1647 -1.3066
25229SOL     OW77127   6.574   7.526   8.579 -0.1921 -0.2565 -0.1919
25229SOL    HW177128   6.500   7.553   8.524 -1.2454 -0.7652  0.9320
25229SOL    HW277129   6.572   7.588   8.652  0.4777 -0.2968 -0.1400
25230SOL     OW77130   6.981   7.352   7.040 -0.1173  0.0191 -0.2439
25230SOL    HW177131   7.056   7.347   6.981 -2.0348  0.7296 -2.9660
25230SOL    HW277132   6.969   7.263   7.071  1.9509 -0.0588  0.4792
25231SOL     OW77133   7.010   5.761   6.103 -0.5587 -0.1019  0.6484
25231SOL    HW177134   7.103   5.780   6.119 -0.0987 -1.6896  0.0999
25231SOL    HW277135   6.971   5.846   6.084  0.4659  0.7928  2.3000
25232SOL     OW77136   0.284   6.813   9.852  0.1146  0.5657  0.8115
25232SOL    HW177137   0.349   6.774   9.910 -0.9884  0.5702  2.1077
25232SOL    HW277138   0.260   6.743   9.792  0.0007  0.0036  1.4959
25233SOL     OW77139   6.681   6.339  10.657  0.1837 -0.2274  0.4227
25233SOL    HW177140   6.635   6.295  10.728  1.5699 -0.3757  1.2638
25233SOL    HW277141   6.688   6.430  10.685 -2.2872  0.5510 -1.1177
25234SOL     OW77142   6.810   5.686  10.854  0.6031  0.0764  0.5194
25234SOL    HW177143   6.768   5.637  10.925  0.0392  0.0965  0.2052
25234SOL    HW277144   6.892   5.639  10.839  0.4214 -0.3234  0.7349
25235SOL     OW77145   6.131   7.247  10.258 -0.6487 -0.5022  0.1659
25235SOL    HW177146   6.218   7.259  10.220  0.0292 -1.4977  1.3358
25235SOL    HW277147   6.091   7.334  10.253 -0.5391 -0.5147 -2.5627
25236SOL     OW77148   6.597   6.010   8.593  0.2100 -0.4279 -0.5475
25236SOL    HW177149   6.656   6.083   8.611 -0.4206  0.3715 -1.6153
25236SOL    HW277150   6.650   5.950   8.539 -0.3147  0.9950 -2.8194
25237SOL     OW77151   6.015   5.261  10.124  0.0562 -0.1822  0.1456
25237SOL    HW177152   5.922   5.245  10.109  0.4473 -2.1302 -0.5583
25237SOL    HW277153   6.026   5.256  10.219 -0.6888  1.1486  0.3343
25238SOL     OW77154   7.233   5.906   7.214  0.4543 -0.4123 -0.2739
25238SOL    HW177155   7.326   5.889   7.202  0.6218 -0.1884  0.6673
25238SOL    HW277156   7.189   5.840   7.160  1.1316 -1.5567  0.5344
25239SOL     OW77157   6.961   7.748   9.504  0.0211 -0.0102 -0.2919
25239SOL    HW177158   6.975   7.716   9.593  0.5054  0.7721 -0.0682
25239SOL    HW277159   7.036   7.806   9.488  0.6733 -1.1822 -1.7232
25240SOL     OW77160   6.676   0.043   7.980 -0.6657 -0.3719 -0.4002
25240SOL    HW177161   6.721  -0.029   7.935  1.7162  0.0018  1.1884
25240SOL    HW277162   6.730   0.119   7.962 -1.4289  0.4007  0.4875
25241SOL     OW77163   0.689   7.959   8.624 -0.1976 -0.5558  0.0767
25241SOL    HW177164   0.627   7.889   8.608 -0.6167 -0.3660  0.8216
25241SOL    HW277165   0.682   8.015   8.546 -0.3964 -0.9380 -0.1854
25242SOL     OW77166   1.057   5.374   6.282  0.3249  0.4261  0.0358
25242SOL    HW177167   0.991   5.435   6.250 -0.1246 -0.2705 -0.3552
25242SOL    HW277168   1.133   5.389   6.225 -0.6188 -1.1422 -1.7384
25243SOL     OW77169   7.778   7.131   7.768 -0.3180  0.4201  0.2947
25243SOL    HW177170   7.732   7.098   7.691 -0.4262  0.3965  0.3693
25243SOL    HW277171   7.803   7.220   7.745  2.1984 -0.4776 -0.9058
25244SOL     OW77172   7.662   5.515   7.572 -0.0111  0.2721  0.6106
25244SOL    HW177173   7.625   5.552   7.492 -0.2974 -0.5437  0.3531
25244SOL    HW277174   7.647   5.582   7.639 -2.9993 -0.4149  0.7866
25245SOL     OW77175   6.943   6.248   9.187 -0.4846  0.3188 -0.0324
25245SOL    HW177176   7.009   6.191   9.226  0.0132  0.3904 -0.7522
25245SOL    HW277177   6.993   6.317   9.143 -0.9994  0.0128 -1.1393
25246SOL     OW77178   0.362   5.940   7.580  0.0323  0.6026 -0.2752
25246SOL    HW177179   0.328   5.854   7.555 -0.9689  0.6886  0.7315
25246SOL    HW277180   0.287   5.998   7.572  0.4770  1.2131 -0.0465
25247SOL     OW77181   6.411   0.440   8.620 -0.3198  0.3459 -0.6611
25247SOL    HW177182   6.476   0.374   8.642  0.5531  1.6116  0.6926
25247SOL    HW277183   6.461   0.520   8.604 -1.4827  1.2672  0.0973
25248SOL     OW77184   7.388   6.612   8.481  0.3153 -0.5762  0.0974
25248SOL    HW177185   7.463   6.623   8.539 -0.4370  0.0935  0.9652
25248SOL    HW277186   7.312   6.628   8.536 -0.3928  1.4861 -1.3487
25249SOL     OW77187   7.117   6.451   9.085  0.2321 -0.3777 -0.5205
25249SOL    HW177188   7.195   6.457   9.140  0.7122 -0.2471 -1.2027
25249SOL    HW277189   7.069   6.533   9.102  0.3413 -0.3657 -0.2605
25250SOL     OW77190   6.219   7.015   6.952 -0.0433  0.0286  0.1630
25250SOL    HW177191   6.267   7.099   6.957  0.2568  0.0425 -1.9986
25250SOL    HW277192   6.128   7.040   6.941  0.1553  0.1676 -1.5650
25251SOL     OW77193   1.067   7.397   8.993 -0.0853 -0.2083 -0.1969
25251SOL    HW177194   1.102   7.314   8.959  1.0649  0.2230 -0.1083
25251SOL    HW277195   1.076   7.458   8.920 -0.3770 -0.0123 -0.0682
25252SOL     OW77196   7.263   6.003   8.986  0.0262  0.2245  0.4707
25252SOL    HW177197   7.307   5.925   8.952 -0.1953  0.3470 -0.1093
25252SOL    HW277198   7.327   6.042   9.046  1.1723  1.0333 -1.2221
25253SOL     OW77199   0.938   6.214   9.649  0.0407 -0.1939  1.0608
25253SOL    HW177200   1.016   6.268   9.638 -0.2128 -0.1289 -0.6331
25253SOL    HW277201   0.970   6.124   9.645 -0.0712 -0.1967 -1.0384
25254SOL     OW77202   0.350   0.754   8.216 -0.6971 -0.1512 -0.1515
25254SOL    HW177203   0.405   0.724   8.288  0.0399 -0.8528 -0.9708
25254SOL    HW277204   0.261   0.751   8.250 -0.3035  0.1864  0.9365
25255SOL     OW77205   7.871   6.586   9.558  0.0215 -0.1472  0.1725
25255SOL    HW177206   7.863   6.514   9.620 -0.3610 -0.0060  0.2848
25255SOL    HW277207   7.892   6.543   9.474 -1.0277 -0.4536  0.0549
25256SOL     OW77208   7.173   0.073   8.535 -0.6590  0.1923  0.2480
25256SOL    HW177209   7.176   0.168   8.535 -0.0779  0.1981  1.4113
25256SOL    HW277210   7.242   0.047   8.597 -0.2987 -0.9966 -0.6170
25257SOL     OW77211   1.228   4.960   7.259 -0.1999  0.5666 -0.1899
25257SOL    HW177212   1.282   4.912   7.198 -0.1143  0.0866  0.2511
25257SOL    HW277213   1.273   4.951   7.343 -0.9639  0.1280  0.1891
25258SOL     OW77214   6.203   5.865  10.026  0.1100  0.1719  0.1426
25258SOL    HW177215   6.160   5.782  10.047 -0.7757  1.0514  2.0156
25258SOL    HW277216   6.289   5.858  10.067  0.3008 -0.0851 -0.2993
25259SOL     OW77217   7.850   6.462   8.423  0.1240 -0.6056 -0.3859
25259SOL    HW177218   7.897   6.476   8.341 -0.5940 -1.7823 -1.0251
25259SOL    HW277219   7.918   6.462   8.490  0.4830  3.2991 -0.5225
25260SOL     OW77220   6.919   6.992  10.027 -0.4250  0.6831  0.2502
25260SOL    HW177221   6.920   7.030   9.940  1.0229  0.9876  0.3692
25260SOL    HW277222   6.829   7.004  10.058 -1.1381 -0.0599 -1.4417
25261SOL     OW77223   7.707   5.903   9.417 -0.4139 -0.0208 -0.0640
25261SOL    HW177224   7.657   5.981   9.442  0.2253 -0.4651  2.9717
25261SOL    HW277225   7.795   5.920   9.449  0.1675 -1.3141 -0.9137
25262SOL     OW77226   7.508   0.343   9.422 -0.2787  0.0785  0.3008
25262SOL    HW177227   7.603   0.356   9.416 -0.4387  1.3201  0.1704
25262SOL    HW277228   7.498   0.275   9.488  0.6853  0.3584  0.7679
25263SOL     OW77229   7.529   7.342   8.090 -0.1577  0.6311  0.6374
25263SOL    HW177230   7.589   7.268   8.081  1.7951  2.0072  1.4071
25263SOL    HW277231   7.451   7.316   8.042  1.0909 -1.2392 -0.5344
25264SOL     OW77232   7.150   7.760   8.294 -0.1563  0.2055  0.3892
25264SOL    HW177233   7.187   7.824   8.232  1.4897  0.8071  1.9038
25264SOL    HW277234   7.226   7.720   8.335 -1.1745 -2.1559  0.1335
25265SOL     OW77235   0.172   6.361  10.001  0.1780  0.1873  0.3199
25265SOL    HW177236   0.197   6.374   9.909 -1.0190 -0.5863 -0.1445
25265SOL    HW277237   0.255   6.353  10.047  0.9366  3.3760 -0.2041
25266SOL     OW77238   7.736   6.536  11.303  0.2474  0.3061  0.5609
25266SOL    HW177239   7.699   6.548  11.215  0.8572  0.9111  0.3761
25266SOL    HW277240   7.758   6.443  11.307  1.8572  0.5822 -0.6177
25267SOL     OW77241   7.585   6.092  10.103 -0.2223  0.4276  0.2664
25267SOL    HW177242   7.569   6.001  10.076 -0.0302  0.6739 -0.7435
25267SOL    HW277243   7.628   6.085  10.188  3.8640 -0.6710 -1.6292
25268SOL     OW77244   7.786   0.189  10.479  0.0542 -0.7059  0.0437
25268SOL    HW177245   7.872   0.151  10.498  0.2918 -0.3647 -0.3260
25268SOL    HW277246   7.803   0.283  10.468 -0.1529 -0.7945 -1.2498
25269SOL     OW77247   7.836   5.434  11.160  0.1196 -0.3403  0.4083
25269SOL    HW177248   7.911   5.424  11.103  0.0636 -0.1124  0.2950
25269SOL    HW277249   7.768   5.473  11.105 -0.6851 -2.2059 -0.0026
25270SOL     OW77250   7.953   6.459   9.038 -0.2764  0.2021 -0.0401
25270SOL    HW177251   7.993   6.544   9.058 -1.7522  0.8627  0.2533
25270SOL    HW277252   7.985   6.437   8.951  1.0210  0.4970  0.3384
25271SOL     OW77253   1.074   7.217   9.889 -0.8006  0.6457  0.0006
25271SOL    HW177254   1.086   7.276   9.815 -2.2825  1.1482  0.1214
25271SOL    HW277255   1.090   7.270   9.966  0.0526  0.3033  0.0659
25272SOL     OW77256   6.863   6.696  10.067 -0.0115 -0.1226  0.7501
25272SOL    HW177257   6.907   6.636  10.007 -0.0685 -0.5612  1.1383
25272SOL    HW277258   6.862   6.780  10.022  0.1636 -0.3931  0.2425
25273SOL     OW77259   7.595   7.956   9.945 -0.2753 -0.4298  0.2160
25273SOL    HW177260   7.555   7.995  10.023 -0.7274 -1.1256  0.3401
25273SOL    HW277261   7.660   7.895   9.980  0.8888  0.6389  0.0195
25274SOL     OW77262   7.356   7.440   9.571 -0.1505  0.1773  0.0273
25274SOL    HW177263   7.296   7.419   9.499  0.2798 -0.5100 -0.1517
25274SOL    HW277264   7.395   7.524   9.546 -0.8567  0.5128  0.0324
25275SOL     OW77265   6.647   0.691  10.850  0.4292 -0.7876  0.4363
25275SOL    HW177266   6.671   0.760  10.789  0.6427 -1.1189  0.1460
25275SOL    HW277267   6.645   0.735  10.936 -1.3663  0.0389  0.0246
25276SOL     OW77268   5.266   6.931  11.084 -0.4367 -0.1111 -0.1067
25276SOL    HW177269   5.289   7.024  11.096  0.5154  0.2973 -3.8295
25276SOL    HW277270   5.322   6.885  11.147  1.0425  1.7211  0.0405
25277SOL     OW77271   0.633   6.491  10.184 -0.4065 -0.1489  0.0766
25277SOL    HW177272   0.608   6.523  10.270  1.7507  1.1771  0.3033
25277SOL    HW277273   0.684   6.563  10.146 -0.2729 -1.1677 -1.8206
25278SOL     OW77274   7.688   6.987   9.870 -0.2593 -0.6467 -0.3526
25278SOL    HW177275   7.774   6.946   9.860 -1.0990 -2.5735 -0.2635
25278SOL    HW277276   7.698   7.074   9.833  1.7543 -0.7856 -0.2366
25279SOL     OW77277   6.795   4.312  10.309  0.1952 -0.7841 -0.5785
25279SOL    HW177278   6.763   4.235  10.262  1.5866 -2.7480  1.4578
25279SOL    HW277279   6.745   4.312  10.391  0.9130 -0.1419 -0.1266
25280SOL     OW77280   0.452   7.330  10.382  0.7919 -0.0394  0.1344
25280SOL    HW177281   0.461   7.346  10.288  1.3150 -0.9824  0.0153
25280SOL    HW277282   0.399   7.403  10.414  3.0989  1.9798 -0.3564
25281SOL     OW77283   7.325   6.248  10.217 -1.2485  0.1085 -0.2250
25281SOL    HW177284   7.363   6.251  10.129  0.0919 -0.5232  0.3000
25281SOL    HW277285   7.237   6.213  10.204  0.0499 -3.1819 -1.0170
25282SOL     OW77286   0.031   7.768   9.041  0.1236  0.0349 -0.1678
25282SOL    HW177287   0.106   7.716   9.009 -0.3976 -0.7488 -0.1547
25282SOL    HW277288  -0.038   7.753   8.977  0.5191  2.2515 -1.1966
25283SOL     OW77289   0.457   5.504  10.411  0.2762  0.3155  0.0648
25283SOL    HW177290   0.543   5.511  10.370  0.3486  0.1148  0.1814
25283SOL    HW277291   0.422   5.421  10.380  1.5172 -1.2738  2.6007
25284SOL     OW77292   7.410   7.008  11.885 -0.0546 -0.5054 -0.2428
25284SOL    HW177293   7.382   7.077  11.825  0.5270 -0.7092 -0.7561
25284SOL    HW277294   7.459   7.054  11.953 -2.6858  0.0582  1.4441
25285SOL     OW77295   7.147   5.147  11.442 -0.1128 -0.8411  0.0360
25285SOL    HW177296   7.121   5.055  11.433 -0.0277 -0.7897 -0.8342
25285SOL    HW277297   7.114   5.188  11.363  1.5207 -0.5081 -0.5093
25286SOL     OW77298   0.975   5.437   9.172  0.5569 -0.0417  0.6002
25286SOL    HW177299   0.990   5.362   9.114  0.4188  0.9091 -0.6937
25286SOL    HW277300   0.959   5.510   9.113 -1.8771  0.5173  1.8346
25287SOL     OW77301   6.200   6.934  11.155 -0.0593  0.2056  0.6991
25287SOL    HW177302   6.126   6.904  11.208  0.0209  1.6308  1.6700
25287SOL    HW277303   6.200   7.029  11.166 -0.3108  0.6467 -2.2551
25288SOL     OW77304   6.510   4.870  10.597 -0.5059  0.3582  0.3116
25288SOL    HW177305   6.479   4.840  10.512 -1.4149 -0.9900  1.0691
25288SOL    HW277306   6.431   4.875  10.651  0.2522 -0.6225  1.5705
25289SOL     OW77307   7.118   6.592   9.559 -0.3007 -0.4353  0.0087
25289SOL    HW177308   7.051   6.632   9.615 -0.2530  0.9488 -0.8580
25289SOL    HW277309   7.183   6.557   9.619  0.3611  2.0745  0.8849
25290SOL     OW77310   7.555   5.814  10.055 -0.4345  0.2640  0.0010
25290SOL    HW177311   7.629   5.772  10.099 -0.3304  2.3442  1.9726
25290SOL    HW277312   7.478   5.784  10.103 -0.5159  0.9284  0.2946
25291SOL     OW77313   0.797   6.450  10.594  0.6124  0.2176 -0.3045
25291SOL    HW177314   0.738   6.411  10.530 -0.1157  0.2106  0.3519
25291SOL    HW277315   0.753   6.436  10.678  1.2008  0.8571  0.1195
25292SOL     OW77316   5.567   2.657   9.709  0.4175 -0.1518 -0.4020
25292SOL    HW177317   5.574   2.562   9.710 -0.2502 -0.2045 -0.4629
25292SOL    HW277318   5.653   2.688   9.740  1.5220 -0.7221 -2.6681
25293SOL     OW77319   5.954   5.784  11.278 -0.2679 -0.0977  0.2874
25293SOL    HW177320   5.943   5.812  11.369  1.1579  3.5828 -0.4722
25293SOL    HW277321   6.047   5.797  11.261 -0.3735 -1.4561 -1.5061
25294SOL     OW77322   0.119   6.492  11.614 -0.5367  0.3825 -0.3713
25294SOL    HW177323   0.117   6.530  11.527  3.1985  2.5104  0.2599
25294SOL    HW277324   0.067   6.552  11.668 -1.2098  0.1363 -0.7234
25295SOL     OW77325   7.306   6.113  10.693 -0.1972  0.1877 -0.1886
25295SOL    HW177326   7.356   6.089  10.614 -1.2610  0.0687 -0.8409
25295SOL    HW277327   7.215   6.115  10.664 -0.5490  0.7503  0.9024
25296SOL     OW77328   0.834   6.960  10.706 -0.1874 -0.4261  0.0054
25296SOL    HW177329   0.843   6.867  10.681 -1.4242 -0.1416 -1.7351
25296SOL    HW277330   0.921   6.985  10.737  0.7823 -1.6238 -1.5516
25297SOL     OW77331   0.786   7.477  11.765 -0.3099  0.1090  0.5227
25297SOL    HW177332   0.795   7.398  11.818  2.5998 -0.5268 -0.7258
25297SOL    HW277333   0.747   7.541  11.824 -0.4238 -1.5408  2.3341
25298SOL     OW77334   7.714   6.026  10.335 -0.2488  0.2048  0.4819
25298SOL    HW177335   7.654   5.981  10.394 -0.1389  1.1614  1.3554
25298SOL    HW277336   7.782   6.061  10.392 -0.3162  1.4320 -0.1535
25299SOL     OW77337   7.268   6.197   9.910 -0.3328 -0.0085  0.0817
25299SOL    HW177338   7.300   6.116   9.870 -0.3882  0.4919 -1.0041
25299SOL    HW277339   7.346   6.252   9.916 -0.6227  0.5071 -0.8112
25300SOL     OW77340   0.586   7.423  11.109  0.2498 -0.2646  0.5981
25300SOL    HW177341   0.539   7.506  11.100  1.0450 -0.0495 -3.1115
25300SOL    HW277342   0.517   7.357  11.116 -0.7817  0.1812 -3.3693
25301SOL     OW77343   0.486   5.294  11.861 -0.0387 -0.2663 -0.5526
25301SOL    HW177344   0.421   5.309  11.792  0.6739 -0.0131 -1.1754
25301SOL    HW277345   0.488   5.199  11.871 -0.7469 -0.2626 -0.2863
25302SOL     OW77346   7.590   6.575  10.402 -0.5702 -0.5169 -0.4499
25302SOL    HW177347   7.622   6.638  10.338  2.0843 -2.7131 -1.4666
25302SOL    HW277348   7.605   6.617  10.487  0.9110  0.3650 -1.1104
25303SOL     OW77349   7.444   6.338   8.878 -0.3928  0.0012  0.7190
25303SOL    HW177350   7.432   6.362   8.970  0.1994  1.1788  0.5040
25303SOL    HW277351   7.535   6.362   8.859 -0.2376 -1.0442  0.0520
25304SOL     OW77352   0.966   5.177   9.065  0.4843  0.1344 -0.1422
25304SOL    HW177353   1.056   5.144   9.060 -0.3552 -2.2332 -1.0033
25304SOL    HW277354   0.943   5.198   8.974  0.1836  0.7823  0.0794
25305SOL     OW77355   6.956   6.527   9.840  0.5909 -0.4345 -0.2689
25305SOL    HW177356   6.880   6.494   9.793  0.2641 -1.5115  0.9602
25305SOL    HW277357   6.972   6.463   9.909  1.6599  0.5812  0.4802
25306SOL     OW77358   6.888   7.037   9.328  0.3876  0.3190  0.8718
25306SOL    HW177359   6.797   7.045   9.358  0.3189  0.4625  0.6262
25306SOL    HW277360   6.925   6.969   9.384 -0.1928 -0.5378  0.2378
25307SOL     OW77361   0.025   5.746   9.025 -0.2092 -0.6919 -0.3042
25307SOL    HW177362   0.068   5.663   9.046  1.3311  0.0198 -0.5086
25307SOL    HW277363   0.030   5.797   9.106 -1.4586 -0.8994 -0.0769
25308SOL     OW77364   1.178   6.334   9.661 -0.1978  0.2442 -0.2489
25308SOL    HW177365   1.179   6.430   9.655 -0.9312  0.2319 -0.6211
25308SOL    HW277366   1.264   6.307   9.627 -0.5737  0.6897 -1.5944
25309SOL     OW77367   6.221   5.721  11.351  0.2686  0.4425  0.2248
25309SOL    HW177368   6.304   5.717  11.304 -0.8120  0.0097 -1.7329
25309SOL    HW277369   6.246   5.729  11.443  2.4720 -0.5415 -0.2286
25310SOL     OW77370   6.499   5.045   9.539 -0.0288  0.0326 -0.0299
25310SOL    HW177371   6.548   5.086   9.468  0.5294 -0.4525  0.0685
25310SOL    HW277372   6.552   4.970   9.565  0.2911  0.7593  1.5613
25311SOL     OW77373   0.060   6.988  10.520  0.3871  0.2647  1.3060
25311SOL    HW177374   0.101   7.052  10.462 -0.2070  1.3611  2.0560
25311SOL    HW277375  -0.024   6.969  10.478  1.4832 -1.7951 -0.1031
25312SOL     OW77376   6.349   4.187   9.465  0.6883  0.0092  0.5049
25312SOL    HW177377   6.439   4.207   9.436  0.4976  0.6194  0.3116
25312SOL    HW277378   6.356   4.100   9.505  1.3230 -0.0496  0.2899
25313SOL     OW77379   7.143   6.886   9.511 -0.2619 -0.2166  0.1235
25313SOL    HW177380   7.062   6.901   9.561 -0.3367  0.7968 -0.2852
25313SOL    HW277381   7.166   6.972   9.476  0.1358 -0.7867 -1.0727
25314SOL     OW77382   6.751   6.662   9.618  0.2823  0.2768 -0.4324
25314SOL    HW177383   6.694   6.660   9.541  0.1496  0.3776 -0.3351
25314SOL    HW277384   6.726   6.585   9.669  1.7247 -0.9616 -1.4691
25315SOL     OW77385   0.531   6.494  11.803  0.2313  0.0732  0.3996
25315SOL    HW177386   0.602   6.526  11.858  1.0615  0.8109 -1.0400
25315SOL    HW277387   0.453   6.499  11.859  1.3641 -1.3169  2.2089
25316SOL     OW77388   7.350   6.234   8.640  0.3038 -0.3648  0.5762
25316SOL    HW177389   7.436   6.200   8.614  0.6192  0.4202  0.5709
25316SOL    HW277390   7.365   6.275   8.725  0.0924  0.3939  0.2586
25317SOL     OW77391   6.303   6.375  11.505  0.0404  0.1429 -0.9590
25317SOL    HW177392   6.295   6.298  11.561  2.8526  0.2146 -0.3059
25317SOL    HW277393   6.373   6.426  11.545  0.3301  1.5206 -3.0838
25318SOL     OW77394   7.676   7.326   9.880  0.3898 -0.7201 -0.0523
25318SOL    HW177395   7.638   7.322   9.968 -0.1068 -2.1618 -0.3006
25318SOL    HW277396   7.770   7.334   9.895  0.5248 -2.9928  0.6863
25319SOL     OW77397   7.372   0.617   8.225  0.1980 -0.0006 -0.3377
25319SOL    HW177398   7.381   0.686   8.159 -2.5857  3.1262  2.1750
25319SOL    HW277399   7.304   0.559   8.190 -1.1134  1.5073 -0.4166
25320SOL     OW77400   7.138   7.012   1.339  0.3092  0.5336  0.7048
25320SOL    HW177401   7.135   7.076   1.268 -0.1302 -0.3527 -0.0965
25320SOL    HW277402   7.231   6.991   1.348  0.4514  1.2498  0.9511
25321SOL     OW77403   0.597   4.602   8.101  0.4185  0.1010 -0.0963
25321SOL    HW177404   0.668   4.651   8.143  1.2066 -1.1106  0.0385
25321SOL    HW277405   0.571   4.537   8.167 -1.2368  0.8786  0.0815
25322SOL     OW77406   0.129   6.131   9.210  0.2814  0.3238  0.1012
25322SOL    HW177407   0.150   6.174   9.126 -1.1707  0.5165 -0.1869
25322SOL    HW277408   0.174   6.185   9.275  1.4160  0.1886 -0.5349
25323SOL     OW77409   0.985   1.322  10.086  0.2950 -0.3191 -0.5802
25323SOL    HW177410   0.960   1.354  10.172  0.2363 -2.2753  0.1988
25323SOL    HW277411   1.065   1.272  10.101  0.5691 -0.2665 -1.7537
25324SOL     OW77412   5.681   6.679  11.798  0.3468 -0.4459  0.2971
25324SOL    HW177413   5.590   6.698  11.821  0.1010 -1.5719  0.2782
25324SOL    HW277414   5.721   6.766  11.788 -1.7408  0.3265 -3.8980
25325SOL     OW77415   0.292   7.892   8.541  0.1864  0.2596  0.2819
25325SOL    HW177416   0.364   7.853   8.492  0.6562  1.0910  0.2878
25325SOL    HW277417   0.286   7.982   8.508 -2.3285 -0.3839 -1.3652
25326SOL     OW77418   7.549   6.130  11.249  0.1546  0.2127  0.4897
25326SOL    HW177419   7.614   6.063  11.230  1.2442  1.2422  0.5128
25326SOL    HW277420   7.519   6.111  11.338  1.0343  0.2036  0.7919
25327SOL     OW77421   7.847   6.221   9.491 -0.5193  0.3203  0.2476
25327SOL    HW177422   7.871   6.304   9.450 -0.0133 -0.1797 -0.4829
25327SOL    HW277423   7.759   6.237   9.526 -1.4258  0.4753 -1.9256
25328SOL     OW77424   6.331   6.822  11.406  0.5943  0.1008 -0.3460
25328SOL    HW177425   6.295   6.849  11.322  0.2934 -0.7225 -0.4961
25328SOL    HW277426   6.412   6.776  11.383 -0.8081 -2.5313 -0.4699
25329SOL     OW77427   6.442   7.297   9.534 -0.0236 -0.1961 -0.4797
25329SOL    HW177428   6.516   7.239   9.516 -0.2946 -0.3271 -1.2070
25329SOL    HW277429   6.472   7.383   9.507  0.4780  0.0797  0.8577
25330SOL     OW77430   1.026   5.276  12.092 -0.6142  0.1919  0.3772
25330SOL    HW177431   0.959   5.338  12.066 -0.4707  0.3557  0.3960
25330SOL    HW277432   0.983   5.220  12.157 -0.7027  0.3600  0.4644
25331SOL     OW77433   4.972   6.475  10.309  0.2951 -0.0773  0.5840
25331SOL    HW177434   5.032   6.466  10.383  1.6263 -0.6572 -0.5210
25331SOL    HW277435   5.016   6.430  10.236 -0.9732  0.4592 -0.5657
25332SOL     OW77436   6.707   5.387  11.613  0.3921 -0.2453  0.4850
25332SOL    HW177437   6.791   5.373  11.657  0.0460  0.6487  1.4882
25332SOL    HW277438   6.681   5.475  11.639  0.1309  0.3101 -1.5064
25333SOL     OW77439   0.829   7.610  10.852  0.1100 -0.6802  0.5160
25333SOL    HW177440   0.831   7.533  10.795  0.1007 -1.6802  1.8150
25333SOL    HW277441   0.735   7.626  10.866  0.1171 -1.1731  1.1825
25334SOL     OW77442   6.883   5.257   0.530  0.3314  0.6267 -0.0083
25334SOL    HW177443   6.899   5.333   0.475 -2.5765 -0.6371 -2.8988
25334SOL    HW277444   6.802   5.277   0.576  0.7949  0.1718  1.0583
25335SOL     OW77445   7.669   6.311   0.474  0.4507 -0.3326  0.5181
25335SOL    HW177446   7.669   6.272   0.562 -2.3318 -0.7045  0.4270
25335SOL    HW277447   7.695   6.239   0.417 -1.5783 -1.2639  0.6876
25336SOL     OW77448   0.400   7.183  10.607  0.0956  0.1056  0.2385
25336SOL    HW177449   0.464   7.224  10.548 -0.1426  0.8592  0.4836
25336SOL    HW277450   0.454   7.141  10.675  0.3473  0.0332 -0.0020
25337SOL     OW77451   5.488   6.804  11.296 -0.0436 -0.0030  0.0199
25337SOL    HW177452   5.561   6.846  11.251  0.3492  0.4024  1.0113
25337SOL    HW277453   5.515   6.713  11.309  0.5960  0.3141  1.0056
25338SOL     OW77454   7.006   5.495  12.270 -0.2599 -0.3991 -0.0024
25338SOL    HW177455   6.928   5.444  12.292 -0.9365  1.6350  2.8982
25338SOL    HW277456   7.076   5.458  12.323  1.3200 -3.0951 -3.5695
25339SOL     OW77457   7.489   5.489  12.117 -0.0577  0.0938  0.1912
25339SOL    HW177458   7.503   5.426  12.046 -0.8691  1.3865 -1.1718
25339SOL    HW277459   7.447   5.438  12.186  1.0956 -1.2865 -0.0743
25340SOL     OW77460   7.928   5.372   0.226  0.0919  0.1167  0.6978
25340SOL    HW177461   7.881   5.387   0.308  0.2553  0.0733  0.7998
25340SOL    HW277462   7.934   5.459   0.186  2.5124  0.6687  2.0887
25341SOL     OW77463   0.057   5.836  11.763 -0.5117  0.0291 -0.2147
25341SOL    HW177464   0.076   5.750  11.726 -1.0993 -1.2120  2.1082
25341SOL    HW277465   0.142   5.870  11.791 -0.3617 -0.1489 -0.4549
25342SOL     OW77466   7.520   5.522   1.122 -0.0819  0.3612  0.0500
25342SOL    HW177467   7.450   5.581   1.093  0.2465  0.5748 -0.3120
25342SOL    HW277468   7.572   5.574   1.183  0.8372  0.8144 -1.0781
25343SOL     OW77469   6.554   6.715  10.627  0.2208 -0.5896 -0.2617
25343SOL    HW177470   6.586   6.661  10.699 -0.7073  0.2811  0.8469
25343SOL    HW277471   6.539   6.801  10.666  0.6670  0.2076 -1.7417
25344SOL     OW77472   7.726   5.489   0.439 -0.0536  0.4632  0.0030
25344SOL    HW177473   7.705   5.549   0.510  0.1100  0.0091  0.4434
25344SOL    HW277474   7.739   5.545   0.362 -1.9399  0.8378 -0.0825
25345SOL     OW77475   0.741   7.825  11.692  0.0380  0.0697 -0.2567
25345SOL    HW177476   0.823   7.874  11.700  0.9464 -1.5693  1.1423
25345SOL    HW277477   0.735   7.774  11.773 -0.1133 -3.1454 -2.1324
25346SOL     OW77478   7.821   5.493  12.398 -0.4425  0.2676  0.0633
25346SOL    HW177479   7.914   5.473  12.382 -0.2127 -0.1609  1.7110
25346SOL    HW277480   7.774   5.422  12.354  0.0180  0.3398 -0.5612
25347SOL     OW77481   0.514   6.551   0.612  0.0063 -0.3356 -0.5364
25347SOL    HW177482   0.508   6.460   0.582  0.3130 -0.4367 -0.3006
25347SOL    HW277483   0.530   6.602   0.532 -0.9844 -0.3851 -0.7837
25348SOL     OW77484   7.948   4.278  12.436  0.2454 -0.6507 -0.1715
25348SOL    HW177485   7.939   4.224  12.514 -1.2682 -0.6054 -0.2995
25348SOL    HW277486   7.870   4.333  12.435  0.0437 -0.9173 -1.9112
25349SOL     OW77487   7.692   6.552  11.570  0.2259 -0.6715  0.0155
25349SOL    HW177488   7.718   6.552  11.478 -0.5079 -1.3997 -0.2092
25349SOL    HW277489   7.755   6.608  11.613 -0.9127  1.8122 -1.3393
25350SOL     OW77490   7.270   6.294   0.205 -0.5902  0.6211  0.0287
25350SOL    HW177491   7.176   6.281   0.189 -0.4648 -1.8203  0.8580
25350SOL    HW277492   7.282   6.268   0.296  0.9937  0.1750 -0.2778
25351SOL     OW77493   1.222   6.297   0.008 -0.3030  0.4619 -0.6064
25351SOL    HW177494   1.143   6.311  -0.045 -1.1096  2.3037  0.9312
25351SOL    HW277495   1.236   6.381   0.052  2.1246 -0.0402 -0.2562
25352SOL     OW77496   7.137   6.574   1.968 -0.2627 -0.2449 -0.0403
25352SOL    HW177497   7.113   6.652   1.918  0.5261  0.9226  1.3350
25352SOL    HW277498   7.086   6.581   2.049  0.7803 -0.4621  0.6489
25353SOL     OW77499   0.941   6.348  11.646  0.3913 -0.2239  0.7272
25353SOL    HW177500   0.943   6.390  11.732 -2.2430  0.1237  0.6838
25353SOL    HW277501   0.848   6.339  11.625  0.9284  0.6114 -2.5378
25354SOL     OW77502   6.940   6.728   0.049  0.3328 -0.6344 -0.1627
25354SOL    HW177503   6.993   6.717  -0.030  2.2451  0.5575  0.8710
25354SOL    HW277504   6.979   6.668   0.112  1.0437  0.8744  0.8780
25355SOL     OW77505   0.107   5.741  12.126 -0.5202  0.1118 -0.2753
25355SOL    HW177506   0.191   5.695  12.121 -0.7123 -0.4651  1.3513
25355SOL    HW277507   0.101   5.772  12.216 -2.1200  0.0169 -0.3211
25356SOL     OW77508   7.216   5.843   0.058 -0.1434  0.0771 -0.7303
25356SOL    HW177509   7.141   5.790   0.084 -1.3395  1.0405 -2.0459
25356SOL    HW277510   7.178   5.926   0.027  1.3975  0.3589 -2.0406
25357SOL     OW77511   6.878   4.457   0.453 -0.4946 -0.1432 -0.3772
25357SOL    HW177512   6.909   4.456   0.544 -0.3373  1.5601 -0.3776
25357SOL    HW277513   6.836   4.372   0.442 -0.7483 -0.2984  1.3836
25358SOL     OW77514   7.630   4.534  10.999  0.5255 -0.0491 -0.8234
25358SOL    HW177515   7.616   4.458  10.943 -0.7529 -1.4143  1.2575
25358SOL    HW277516   7.720   4.524  11.031 -0.1704 -1.6420  0.7453
25359SOL     OW77517   7.890   6.664   0.331 -0.0631 -0.6663  0.5138
25359SOL    HW177518   7.920   6.586   0.283 -0.2238 -0.2071 -0.3531
25359SOL    HW277519   7.904   6.642   0.423  2.8747 -0.5129  0.2102
25360SOL     OW77520   5.548   6.424   9.975 -0.3367  0.3203  0.1359
25360SOL    HW177521   5.496   6.344   9.987  0.6107 -0.1807  1.1203
25360SOL    HW277522   5.486   6.487   9.938 -0.6543 -1.3979 -2.5558
25361SOL     OW77523   1.226   5.477  12.475 -0.4541 -0.6471  0.0647
25361SOL    HW177524   1.139   5.510  12.452 -0.9672 -0.7282  1.7481
25361SOL    HW277525   1.230   5.483  12.571  1.2302 -1.0700  0.0600
25362SOL     OW77526   7.266   6.030   0.779  0.3905 -0.7844 -0.5740
25362SOL    HW177527   7.276   5.991   0.866 -1.0234  0.4469  0.1746
25362SOL    HW277528   7.339   6.091   0.771 -0.0578 -0.1344  0.1954
25363SOL     OW77529   7.204   5.526  11.775 -0.3204  0.5626 -0.1421
25363SOL    HW177530   7.241   5.488  11.695  0.8624  1.2997  0.0396
25363SOL    HW277531   7.215   5.457  11.841 -0.6356  0.2263 -0.4368
25364SOL     OW77532   6.557   6.796  11.767 -0.3149  0.4486 -0.5231
25364SOL    HW177533   6.594   6.721  11.721 -0.3153 -0.2559  0.5901
25364SOL    HW277534   6.618   6.812  11.838 -1.4068  0.1548  0.5043
25365SOL     OW77535   7.154   7.752   0.073  0.0687  0.3629  0.2656
25365SOL    HW177536   7.222   7.803   0.116  0.3939 -0.6088  0.9388
25365SOL    HW277537   7.131   7.684   0.136 -1.4963  0.6264  0.0316
25366SOL     OW77538   7.602   4.998   0.065 -0.0616  0.6912 -0.1187
25366SOL    HW177539   7.651   5.077   0.042 -1.3036  1.7614  0.7484
25366SOL    HW277540   7.541   4.985  -0.008 -0.7812  1.3535  0.3422
25367SOL     OW77541   7.587   5.932  12.321  0.5404 -0.2609 -0.6012
25367SOL    HW177542   7.516   5.868  12.324 -1.3556  1.7729  0.3510
25367SOL    HW277543   7.616   5.931  12.229 -0.3718 -1.4662 -0.9088
25368SOL     OW77544   7.069   7.058  11.703 -0.0129 -0.5338  0.0855
25368SOL    HW177545   7.089   6.965  11.712  4.8330  0.3157  0.7704
25368SOL    HW277546   7.046   7.086  11.791  0.1901 -0.7732  0.2170
25369SOL     OW77547   0.206   5.444  11.966 -0.4394  0.4405  0.5033
25369SOL    HW177548   0.188   5.492  11.885 -1.7228 -2.6029 -1.1946
25369SOL    HW277549   0.122   5.442  12.012 -0.1940  0.4867  0.9617
25370SOL     OW77550   7.189   7.842   9.893 -0.2325  0.4549 -0.2165
25370SOL    HW177551   7.276   7.815   9.921  0.2030  2.1365  0.1739
25370SOL    HW277552   7.145   7.761   9.869  1.1096 -0.5249  0.5050
25371SOL     OW77553   0.816   6.168   0.218  0.5984  0.7573  0.0685
25371SOL    HW177554   0.873   6.243   0.201 -1.8950  2.2751 -2.4960
25371SOL    HW277555   0.733   6.207   0.245 -0.3455 -1.1658  0.0732
25372SOL     OW77556   7.528   6.622  10.868  0.1468  0.5574  0.4360
25372SOL    HW177557   7.442   6.636  10.907 -0.8996 -2.0996 -0.6463
25372SOL    HW277558   7.510   6.614  10.774  0.9291 -3.3063  0.4498
25373SOL     OW77559   7.064   6.785  11.679 -0.4289  0.0614  0.1612
25373SOL    HW177560   7.024   6.738  11.752  0.2244  1.0595  1.2047
25373SOL    HW277561   7.154   6.752  11.675  0.2133  1.5555  1.2738
25374SOL     OW77562   0.953   6.364  11.015 -0.2847  0.5349 -0.2714
25374SOL    HW177563   1.027   6.423  11.028  0.8752 -0.9924  0.4905
25374SOL    HW277564   0.923   6.343  11.103 -1.5609  1.0267 -0.5754
25375SOL     OW77565   7.351   6.048  10.430  0.2436  0.0969 -0.0546
25375SOL    HW177566   7.432   6.002  10.454  0.0896 -0.1776 -0.0578
25375SOL    HW277567   7.378   6.110  10.363  0.5785  0.4833  0.4294
25376SOL     OW77568   0.419   6.951   1.372  0.4111  0.4981 -0.1720
25376SOL    HW177569   0.483   6.906   1.428  0.4607 -0.4392 -0.9492
25376SOL    HW277570   0.430   7.044   1.392  2.0457  0.3600 -0.2906
25377SOL     OW77571   7.516   0.672  11.369  0.3785 -0.2138 -0.6479
25377SOL    HW177572   7.432   0.644  11.405  1.4809 -0.8167  1.6691
25377SOL    HW277573   7.524   0.763  11.397  0.7513 -0.3394 -0.3414
25378SOL     OW77574   5.652   5.786   1.133  0.4326  0.4215  0.0716
25378SOL    HW177575   5.616   5.737   1.059 -0.0591 -0.8075  1.0873
25378SOL    HW277576   5.605   5.753   1.209  1.7839  0.7712  1.1007
25379SOL     OW77577   0.395   7.297   0.237 -0.2172 -0.1687  0.2541
25379SOL    HW177578   0.345   7.357   0.181  1.3947  1.3273  0.3379
25379SOL    HW277579   0.405   7.344   0.319  2.9299  0.4727 -0.3756
25380SOL     OW77580   0.108   6.848   1.284  0.0878 -0.2600 -0.3026
25380SOL    HW177581   0.049   6.912   1.243  0.2942  0.3707  0.3623
25380SOL    HW277582   0.065   6.826   1.367 -0.3106 -1.4970 -0.8128
25381SOL     OW77583   6.166   0.523   0.770  0.2865  0.1551 -0.0433
25381SOL    HW177584   6.159   0.428   0.765 -0.3455  0.2560 -1.4996
25381SOL    HW277585   6.101   0.549   0.835  0.7066 -0.4286  0.6147
25382SOL     OW77586   0.472   7.552   2.015 -0.0413 -1.0135 -0.0280
25382SOL    HW177587   0.442   7.553   1.924 -1.8911  0.5487  0.5509
25382SOL    HW277588   0.405   7.600   2.064  1.7673 -0.2881  1.8998
25383SOL     OW77589   7.440   0.182  11.764  0.2391  0.1713  0.5782
25383SOL    HW177590   7.524   0.185  11.719 -0.2365  0.5005 -0.3204
25383SOL    HW277591   7.437   0.095  11.804  0.3188 -0.4696 -0.7739
25384SOL     OW77592   6.976   6.314  12.073  0.4257 -0.3142  1.1089
25384SOL    HW177593   7.050   6.257  12.052 -0.3147 -1.5833  1.7589
25384SOL    HW277594   6.905   6.253  12.094 -1.4578  0.8050 -1.5662
25385SOL     OW77595   7.612   7.521   1.118  0.0360 -0.1761 -0.5033
25385SOL    HW177596   7.636   7.575   1.043 -1.5717 -2.4649 -2.8537
25385SOL    HW277597   7.541   7.569   1.160 -0.0722  0.4774 -1.3976
25386SOL     OW77598   1.392   6.548   1.089 -0.4484  0.1387 -0.6101
25386SOL    HW177599   1.305   6.587   1.090  0.5620  2.6524  1.6937
25386SOL    HW277600   1.413   6.533   1.181  0.4139 -3.4241 -1.2221
25387SOL     OW77601   7.550   6.483   1.719  0.1414  0.2722  0.0666
25387SOL    HW177602   7.506   6.556   1.763 -2.3156 -0.9548 -0.1653
25387SOL    HW277603   7.551   6.413   1.784  1.7306  0.1947  0.0075
25388SOL     OW77604   6.702   7.769   2.063 -0.4774  0.1235  0.7659
25388SOL    HW177605   6.710   7.700   1.997  0.0196  0.8352  0.0596
25388SOL    HW277606   6.670   7.724   2.141 -0.0198 -0.9289  0.3659
25389SOL     OW77607   0.698   5.953   0.626  0.0378  0.1208  0.5709
25389SOL    HW177608   0.768   5.991   0.572  1.0064 -1.8946  0.3485
25389SOL    HW277609   0.713   5.990   0.713  0.5715  0.7058  0.2471
25390SOL     OW77610   0.782   6.502   3.546 -0.1391 -0.2545  0.7051
25390SOL    HW177611   0.785   6.456   3.630 -0.8137  1.1261  1.5056
25390SOL    HW277612   0.874   6.516   3.524  0.0565  1.0808  2.1966
25391SOL     OW77613   0.104   7.447   1.368 -0.1903  0.1178 -0.2584
25391SOL    HW177614   0.128   7.534   1.338  0.8386 -0.4841 -1.3167
25391SOL    HW277615   0.011   7.438   1.346 -0.2707  0.9098 -0.2378
25392SOL     OW77616   5.955   6.868  12.139 -0.0831  0.1080  0.3583
25392SOL    HW177617   5.967   6.827  12.053 -0.2032 -1.8649  1.2115
25392SOL    HW277618   5.904   6.947  12.122 -1.8718 -1.2882 -1.1987
25393SOL     OW77619   0.298   7.707   0.958  0.4955 -0.4803 -0.6587
25393SOL    HW177620   0.340   7.754   0.885 -0.6316 -0.3492 -1.2433
25393SOL    HW277621   0.296   7.771   1.029  0.6098 -0.2421 -0.8682
25394SOL     OW77622   0.582   6.315   0.264 -0.6116  0.0491  0.9146
25394SOL    HW177623   0.497   6.315   0.220 -1.3141 -1.6425  2.1182
25394SOL    HW277624   0.614   6.404   0.256 -0.7730 -0.0744 -2.7461
25395SOL     OW77625   0.011   1.605   4.530 -0.0097  0.3453 -0.3150
25395SOL    HW177626   0.082   1.584   4.470 -0.6216 -1.1512 -0.5471
25395SOL    HW277627   0.047   1.673   4.587  0.6835  1.5904 -2.1633
25396SOL     OW77628   7.949   7.447   2.165 -0.1739 -0.2052 -0.3707
25396SOL    HW177629   7.985   7.402   2.088  1.0392  0.4411 -0.1951
25396SOL    HW277630   7.931   7.377   2.228 -0.1475 -0.6299 -0.8276
25397SOL     OW77631   1.977   0.010   3.104 -0.0367  0.6939 -0.3091
25397SOL    HW177632   2.018  -0.054   3.162 -0.3686  0.5417 -0.2400
25397SOL    HW277633   1.988   0.094   3.149  1.1144  0.8098 -0.7783
25398SOL     OW77634   7.222   0.760   3.346  0.3927 -0.1867 -0.7978
25398SOL    HW177635   7.240   0.759   3.440 -1.4213  1.3176 -0.3750
25398SOL    HW277636   7.299   0.800   3.306  0.9828 -0.4282  0.0840
25399SOL     OW77637   0.411   1.426   3.922  0.5422 -0.5821  0.4197
25399SOL    HW177638   0.395   1.338   3.956  1.2679 -0.0908  2.1429
25399SOL    HW277639   0.362   1.484   3.980  1.2829  0.2652  0.2223
25400SOL     OW77640   2.594   7.382   3.100 -0.1752  0.0338 -0.1640
25400SOL    HW177641   2.590   7.302   3.152 -0.5523  0.3912  0.3662
25400SOL    HW277642   2.687   7.400   3.089 -0.0887 -0.5474 -0.3987
25401SOL     OW77643   0.705   7.811   2.758  0.0377  0.1734 -0.0170
25401SOL    HW177644   0.751   7.892   2.780 -0.1517  0.6778 -1.3605
25401SOL    HW277645   0.612   7.835   2.763 -0.0780 -0.5091  1.4926
25402SOL     OW77646   7.666   1.851   1.838 -0.3920 -0.1229  0.3289
25402SOL    HW177647   7.741   1.860   1.896  0.5278  0.1551 -0.8654
25402SOL    HW277648   7.624   1.937   1.839 -0.3465 -0.1028  0.5163
25403SOL     OW77649   0.688   6.680   1.157  0.0624 -0.1043  0.4879
25403SOL    HW177650   0.615   6.734   1.127 -0.0812 -1.6007 -2.1913
25403SOL    HW277651   0.756   6.743   1.180 -0.4235  1.2912 -1.5708
25404SOL     OW77652   0.752   0.229   2.883 -0.2891 -0.2138 -0.0415
25404SOL    HW177653   0.820   0.191   2.827 -0.7007 -0.4249 -0.4108
25404SOL    HW277654   0.797   0.296   2.933  0.5335 -1.4186  0.8906
25405SOL     OW77655   7.111   0.536   2.629  0.0101  0.2150 -0.1501
25405SOL    HW177656   7.170   0.505   2.698 -1.4042 -0.6831  0.7115
25405SOL    HW277657   7.040   0.472   2.629 -1.0837  1.4065 -0.9704
25406SOL     OW77658   7.744   0.457   3.619 -0.2414  0.5739  0.0154
25406SOL    HW177659   7.701   0.542   3.610 -1.1267 -0.0030 -1.5515
25406SOL    HW277660   7.679   0.394   3.586  0.5403 -0.6772  0.7795
25407SOL     OW77661   7.063   6.287   1.460  0.3913 -0.3016  0.3618
25407SOL    HW177662   7.016   6.344   1.522 -0.0356  0.8023 -0.9301
25407SOL    HW277663   7.155   6.296   1.485  0.2746  0.5375  0.5286
25408SOL     OW77664   0.291   1.879   3.196 -0.1216 -0.3301 -0.1608
25408SOL    HW177665   0.252   1.947   3.250 -2.6563 -0.2666 -1.9279
25408SOL    HW277666   0.257   1.797   3.233  0.2723 -0.4584 -0.0716
25409SOL     OW77667   7.891   6.113   3.129  0.3164 -0.0527  0.3163
25409SOL    HW177668   7.984   6.091   3.126  0.6218  1.2006 -0.0719
25409SOL    HW277669   7.870   6.118   3.222  0.2106 -1.9823  0.4167
25410SOL     OW77670   1.015   1.274   3.740 -0.4586  0.0353 -0.4954
25410SOL    HW177671   0.984   1.320   3.818 -0.0129 -0.6904  0.1207
25410SOL    HW277672   0.942   1.218   3.715  0.6214 -2.5267  1.6173
25411SOL     OW77673   6.350   1.934   3.291  0.0245 -0.3437  0.7425
25411SOL    HW177674   6.289   1.861   3.279  0.3418 -0.6044  0.7075
25411SOL    HW277675   6.410   1.904   3.359  0.2730 -0.1909  0.5915
25412SOL     OW77676   7.222   1.166   2.486  0.3863  0.5203 -0.4616
25412SOL    HW177677   7.294   1.103   2.486 -0.9491 -1.0877  0.4554
25412SOL    HW277678   7.251   1.236   2.545  0.7356 -0.7119  0.8776
25413SOL     OW77679   6.814   6.149   2.231  0.3878  0.2103  0.1004
25413SOL    HW177680   6.823   6.182   2.321 -1.9591 -0.1585  0.5512
25413SOL    HW277681   6.748   6.207   2.192  1.4612  0.4316 -1.4623
25414SOL     OW77682   0.999   1.196   2.144  0.0222 -0.3011 -0.0866
25414SOL    HW177683   0.926   1.135   2.136 -0.2594 -0.3017  1.8877
25414SOL    HW277684   1.077   1.141   2.150 -0.2822 -0.5812  2.2536
25415SOL     OW77685   1.999   7.659   3.693 -0.1236  0.3135 -0.3053
25415SOL    HW177686   1.996   7.664   3.597 -0.3258 -0.2383 -0.3300
25415SOL    HW277687   1.907   7.659   3.719 -0.1361 -1.5096 -0.2273
25416SOL     OW77688   0.569   0.267   2.666 -0.1343  0.2602  0.0859
25416SOL    HW177689   0.509   0.330   2.706 -0.7891 -0.8516  0.9152
25416SOL    HW277690   0.602   0.216   2.739 -1.1837 -1.6817 -0.7289
25417SOL     OW77691   2.801   0.075   3.246  0.2354  0.9384  0.3731
25417SOL    HW177692   2.742   0.150   3.238  0.3775  1.1819  1.4044
25417SOL    HW277693   2.829   0.056   3.156 -1.4816  0.7421 -0.1580
25418SOL     OW77694   7.558   0.908   4.875 -0.1685  0.0802  0.1411
25418SOL    HW177695   7.496   0.880   4.808 -0.6412 -0.6006  0.8411
25418SOL    HW277696   7.632   0.847   4.867 -0.7256 -0.7434  0.9573
25419SOL     OW77697   6.601   1.592   5.452  0.3142 -0.3250  0.5500
25419SOL    HW177698   6.688   1.624   5.427 -0.4815  0.0600 -1.9507
25419SOL    HW277699   6.585   1.633   5.537  1.9694  0.7506  0.3994
25420SOL     OW77700   7.495   1.474   3.997 -0.3397  0.5092 -0.0199
25420SOL    HW177701   7.461   1.559   4.026  1.3848  1.3349 -0.3119
25420SOL    HW277702   7.445   1.455   3.917  0.3573  2.0473 -0.8613
25421SOL     OW77703   0.506   7.397   7.277  0.1964  0.2427  0.0071
25421SOL    HW177704   0.425   7.447   7.286  0.2916  0.5858 -0.9320
25421SOL    HW277705   0.546   7.400   7.364 -0.5979  0.4197  0.3691
25422SOL     OW77706   6.633   0.256   4.512  0.1320 -0.0205 -0.1272
25422SOL    HW177707   6.685   0.253   4.432  0.1964  1.2742 -0.1505
25422SOL    HW277708   6.597   0.168   4.521 -0.0850 -0.1128 -1.7124
25423SOL     OW77709   0.708   0.448   4.811  0.4531 -0.3528  0.5877
25423SOL    HW177710   0.693   0.359   4.843  0.0313 -0.0500  1.2759
25423SOL    HW277711   0.620   0.483   4.796  0.6290 -0.9634 -2.3990
25424SOL     OW77712   1.527   6.779   2.703 -0.1863 -0.1804 -0.1645
25424SOL    HW177713   1.556   6.688   2.699  0.0048 -0.1022 -0.6348
25424SOL    HW277714   1.524   6.800   2.797 -0.3770 -0.7145 -0.0514
25425SOL     OW77715   0.081   0.456   6.138  0.1599 -0.6234  0.1729
25425SOL    HW177716   0.157   0.497   6.097 -0.1699  0.0213  0.1880
25425SOL    HW277717   0.061   0.512   6.213  0.2525 -1.3261  0.7310
25426SOL     OW77718   0.833   5.728   4.143 -0.1201  0.3281  0.3583
25426SOL    HW177719   0.805   5.655   4.197  0.5981 -0.5728 -0.4305
25426SOL    HW277720   0.928   5.732   4.155  0.1346 -0.2433 -1.2120
25427SOL     OW77721   6.935   1.614   4.848 -0.4752  0.6870  0.1803
25427SOL    HW177722   6.859   1.592   4.902  1.0118 -1.4693  1.5511
25427SOL    HW277723   6.969   1.695   4.886 -1.9357  1.6079 -0.3707
25428SOL     OW77724   7.975   1.705   7.194 -0.0374 -0.6717  0.3427
25428SOL    HW177725   8.046   1.708   7.129  1.2000 -0.3109  1.6631
25428SOL    HW277726   7.918   1.635   7.162  0.7225 -0.7476 -0.9493
25429SOL     OW77727   0.462   1.547   5.616  0.4960  0.3840 -0.1698
25429SOL    HW177728   0.459   1.519   5.707  0.9713  1.3749  0.1611
25429SOL    HW277729   0.529   1.491   5.576  0.2940 -0.0434  0.0834
25430SOL     OW77730   7.167   2.132   3.908  0.0259  0.2227 -0.1025
25430SOL    HW177731   7.128   2.215   3.882  1.7541  0.9316 -0.6031
25430SOL    HW277732   7.227   2.111   3.837  0.7079 -0.6768  0.7178
25431SOL     OW77733   0.547   7.865   4.159  0.7712  0.0251 -0.1292
25431SOL    HW177734   0.633   7.887   4.124  0.1764  0.6718 -1.2079
25431SOL    HW277735   0.518   7.943   4.205  0.4500  0.0641 -0.3923
25432SOL     OW77736   0.168   7.559   4.986  0.1109  0.7740 -0.2152
25432SOL    HW177737   0.176   7.486   5.047  1.1974  0.1388 -1.0679
25432SOL    HW277738   0.216   7.530   4.908 -3.0101  0.6550 -2.2690
25433SOL     OW77739   6.893   1.144   5.081 -0.9182 -0.0432 -0.0185
25433SOL    HW177740   6.898   1.234   5.113 -2.0679 -0.2018  0.6295
25433SOL    HW277741   6.974   1.133   5.031 -0.9903  1.5119 -0.5501
25434SOL     OW77742   0.449   1.478   4.934 -0.1876 -0.4409 -0.0352
25434SOL    HW177743   0.407   1.392   4.925 -1.1699 -0.1934  1.7083
25434SOL    HW277744   0.381   1.541   4.910  0.6648 -0.1349 -1.7324
25435SOL     OW77745   0.296   1.944   6.226  0.3677 -0.3779 -0.5943
25435SOL    HW177746   0.277   1.942   6.132 -1.0156  0.8618 -0.3725
25435SOL    HW277747   0.274   1.856   6.257  2.0966 -1.2371 -1.6079
25436SOL     OW77748   6.861   1.866   5.725 -0.5599  0.4197 -0.0312
25436SOL    HW177749   6.892   1.830   5.808  1.4987 -0.5047 -1.1224
25436SOL    HW277750   6.885   1.958   5.728  0.2910  0.2064  0.0815
25437SOL     OW77751   1.587   7.927   3.260  0.1698  0.2088  0.1746
25437SOL    HW177752   1.677   7.895   3.262  0.3764  0.6744 -0.7535
25437SOL    HW277753   1.547   7.883   3.185 -0.0196  0.8512 -0.1185
25438SOL     OW77754   0.414   1.818   5.579 -0.6426  0.5286  0.2291
25438SOL    HW177755   0.323   1.811   5.551 -0.8855 -2.2807  1.3832
25438SOL    HW277756   0.444   1.728   5.585  1.1872  1.2076  3.0769
25439SOL     OW77757   0.586   6.427   6.695  0.1929 -0.4471  0.2302
25439SOL    HW177758   0.625   6.368   6.630  1.8180  1.4107 -0.5891
25439SOL    HW277759   0.498   6.445   6.661  1.2267  1.0181 -1.9615
25440SOL     OW77760   0.180   1.513   6.624 -0.3959  0.1298  0.2243
25440SOL    HW177761   0.180   1.461   6.543  0.9406 -1.1869  1.0349
25440SOL    HW277762   0.173   1.604   6.593  1.0924 -0.2652 -1.4357
25441SOL     OW77763   7.065   0.774   8.079  0.1879 -0.3869 -0.2610
25441SOL    HW177764   7.119   0.765   8.000  0.3140  0.3376 -0.2690
25441SOL    HW277765   6.986   0.818   8.048 -0.4604 -1.5344 -0.2664
25442SOL     OW77766   0.989   7.666   6.572 -0.2600 -0.0213 -0.1689
25442SOL    HW177767   0.905   7.632   6.601 -0.6528  0.7518 -0.3941
25442SOL    HW277768   1.048   7.590   6.576 -1.0053 -0.6110 -0.2014
25443SOL     OW77769   7.354   0.508   6.921  0.0533 -0.0506  0.1101
25443SOL    HW177770   7.406   0.584   6.946  0.6573 -0.5660  0.4507
25443SOL    HW277771   7.374   0.442   6.987  0.3313 -0.8536 -0.7476
25444SOL     OW77772   7.091   6.370   6.902 -0.5675  0.1340  0.7649
25444SOL    HW177773   7.129   6.314   6.834  0.7539  0.8273  0.8892
25444SOL    HW277774   7.095   6.458   6.864  0.4704  0.5781  1.8224
25445SOL     OW77775   0.745   0.332   8.571 -0.2983  0.2130  0.1089
25445SOL    HW177776   0.773   0.331   8.479  0.3081 -2.2193  0.2342
25445SOL    HW277777   0.681   0.402   8.576  0.1115  0.8209 -2.0316
25446SOL     OW77778   1.395   6.311   4.939  0.2056 -0.6173 -0.0368
25446SOL    HW177779   1.452   6.340   4.868  0.3039  0.7119  0.5499
25446SOL    HW277780   1.307   6.319   4.905  0.2581 -0.0722 -0.0651
25447SOL     OW77781   7.073   7.229   6.364 -0.0485 -0.2386  0.8597
25447SOL    HW177782   7.090   7.156   6.304 -0.1188 -1.3308  2.1396
25447SOL    HW277783   7.037   7.188   6.443 -1.8721  1.3448  0.9290
25448SOL     OW77784   7.277   6.473   5.356  0.4299 -0.0587 -0.1475
25448SOL    HW177785   7.194   6.467   5.403 -0.2716  1.6443 -1.0672
25448SOL    HW277786   7.344   6.462   5.424 -0.5316 -0.6630  0.7387
25449SOL     OW77787   6.508   0.564   6.853 -0.3036 -0.0114 -0.6889
25449SOL    HW177788   6.470   0.588   6.769 -0.3188 -0.5963 -0.8528
25449SOL    HW277789   6.560   0.640   6.878 -0.1905  0.1169 -1.2911
25450SOL     OW77790   0.034   0.501   6.639  0.3861  0.7219  0.2351
25450SOL    HW177791   0.106   0.480   6.699  2.5691  2.6899 -1.5401
25450SOL    HW277792  -0.038   0.446   6.670  2.4605 -1.0460  2.3893
25451SOL     OW77793   7.059   1.162   5.541 -0.6187 -0.5789  0.0569
25451SOL    HW177794   7.094   1.111   5.614 -2.6662 -1.7660  0.2640
25451SOL    HW277795   7.059   1.102   5.467 -0.4204  0.0097 -0.4283
25452SOL     OW77796   0.698   1.102   6.589 -0.3577  0.0697  0.1300
25452SOL    HW177797   0.698   1.107   6.494 -1.0866 -0.5823  0.0783
25452SOL    HW277798   0.740   1.183   6.618  0.7900 -0.1792 -0.7519
25453SOL     OW77799   6.606   1.593   8.599 -0.0998 -0.3465  0.5929
25453SOL    HW177800   6.658   1.651   8.543 -1.1219 -1.4967 -1.6980
25453SOL    HW277801   6.561   1.651   8.659 -0.5573  1.2254 -1.1673
25454SOL     OW77802   6.849   0.097   5.963 -0.0510  0.4871 -0.0925
25454SOL    HW177803   6.818   0.094   5.872 -0.0405 -1.2355 -0.0782
25454SOL    HW277804   6.805   0.173   6.001  1.5851  2.5446 -2.0653
25455SOL     OW77805   0.342   2.421   6.116 -0.3304 -0.4597 -0.1601
25455SOL    HW177806   0.423   2.461   6.084 -0.5334  0.9262  0.9687
25455SOL    HW277807   0.356   2.327   6.103  1.5235 -0.2785  0.1261
25456SOL     OW77808   7.206   1.924   5.720 -0.0741  0.3195  0.0341
25456SOL    HW177809   7.132   1.867   5.740  0.8452 -1.4399 -1.3327
25456SOL    HW277810   7.200   1.938   5.626  0.3936  1.5842  0.1693
25457SOL     OW77811   0.535   7.714   6.566 -0.5505 -0.1725  0.5310
25457SOL    HW177812   0.493   7.797   6.589 -0.6762 -0.4830  1.4672
25457SOL    HW277813   0.572   7.729   6.479 -2.6141  0.1066 -0.3478
25458SOL     OW77814   6.612   7.408   6.189 -0.2174  0.0059 -0.0043
25458SOL    HW177815   6.521   7.411   6.161 -0.2646 -1.7636 -0.1459
25458SOL    HW277816   6.616   7.335   6.252  1.3111 -0.7199 -0.8708
25459SOL     OW77817   0.088   0.670   5.373 -0.0628  0.1145 -0.3374
25459SOL    HW177818   0.051   0.650   5.458 -0.0379 -0.8698 -0.5446
25459SOL    HW277819   0.177   0.701   5.392 -0.5668  1.3818  0.0774
25460SOL     OW77820   0.856   7.361   5.786 -0.2453  0.2568 -0.0574
25460SOL    HW177821   0.778   7.305   5.787  2.6404 -4.3549 -1.9942
25460SOL    HW277822   0.841   7.422   5.714 -1.3048 -1.9790 -1.8564
25461SOL     OW77823   7.888   7.926  10.213 -0.0700 -0.2136  0.1199
25461SOL    HW177824   7.818   7.863  10.229 -0.4971 -0.2416 -1.6690
25461SOL    HW277825   7.908   7.962  10.300 -1.8612 -0.6480  0.7486
25462SOL     OW77826   7.537   0.228   6.946 -0.4433  0.3353  0.1864
25462SOL    HW177827   7.506   0.275   6.869  0.7061  2.6820  1.0792
25462SOL    HW277828   7.592   0.157   6.911 -0.3009  1.0869 -1.1483
25463SOL     OW77829   1.578   1.969   9.364  0.5173 -0.2109  0.1728
25463SOL    HW177830   1.546   1.892   9.317 -0.4592 -0.6694  1.5437
25463SOL    HW277831   1.499   2.017   9.387  1.0800  0.8233 -0.0083
25464SOL     OW77832   6.534   0.708   8.653 -0.7623  0.5469  0.7443
25464SOL    HW177833   6.517   0.786   8.599 -1.0466 -0.9718 -1.5025
25464SOL    HW277834   6.627   0.689   8.640 -1.1631 -0.7221 -0.5770
25465SOL     OW77835   4.970   6.720   7.899 -0.3600  0.1596  0.6164
25465SOL    HW177836   5.032   6.669   7.847 -0.6821 -0.7932  1.1500
25465SOL    HW277837   4.952   6.666   7.975 -0.3156  1.3020  1.4706
25466SOL     OW77838   6.455   6.195   9.203  0.4091  0.4922  0.0617
25466SOL    HW177839   6.413   6.267   9.155  0.0805  0.3206  0.0852
25466SOL    HW277840   6.534   6.176   9.153  0.9378  1.4235  0.5209
25467SOL     OW77841   7.430   7.705  11.074 -0.0818 -0.1575 -0.6001
25467SOL    HW177842   7.434   7.740  10.985 -1.3645  1.8131  0.0480
25467SOL    HW277843   7.509   7.652  11.083 -0.3980 -1.2192 -3.2199
25468SOL     OW77844   7.875   6.402   7.953  0.0588 -0.2680  0.2704
25468SOL    HW177845   7.875   6.327   7.894 -0.1576  0.4422 -0.6478
25468SOL    HW277846   7.789   6.443   7.940  0.0945  0.0197  0.9133
25469SOL     OW77847   7.980   6.899   8.000  0.1739 -0.2401 -0.3803
25469SOL    HW177848   7.932   6.863   7.927 -1.8080 -0.7294  1.0835
25469SOL    HW277849   8.015   6.823   8.046 -1.3598 -0.1981  0.9500
25470SOL     OW77850   7.011   7.640   6.635 -0.3413  0.4201  0.0371
25470SOL    HW177851   7.076   7.643   6.705 -1.1599 -0.0567  0.8369
25470SOL    HW277852   7.061   7.618   6.556  0.3219 -1.0340  0.8367
25471SOL     OW77853   0.790   0.861   7.764 -0.7296  0.8632  0.2160
25471SOL    HW177854   0.858   0.795   7.758  0.7797  2.0992  2.4837
25471SOL    HW277855   0.719   0.827   7.709  0.5291 -1.8856  0.1269
25472SOL     OW77856   7.489   1.932   9.882  0.6150 -0.5393  0.6138
25472SOL    HW177857   7.472   1.839   9.870 -1.3007 -0.3569  1.5390
25472SOL    HW277858   7.517   1.940   9.973  0.4818 -0.1845  0.6244
25473SOL     OW77859   1.221   6.098   7.888  0.0729 -1.0158  0.4424
25473SOL    HW177860   1.262   6.014   7.907  0.3346 -1.4504 -1.7528
25473SOL    HW277861   1.128   6.078   7.876 -0.5402 -0.3639  3.3426
25474SOL     OW77862   7.985   7.104   9.038 -0.4336 -0.2750 -0.5468
25474SOL    HW177863   7.983   7.038   8.969  1.1770 -0.1772 -0.7149
25474SOL    HW277864   8.039   7.175   9.003 -0.9643  0.5121  0.1832
25475SOL     OW77865   7.273   0.301   7.363  0.4649 -0.2602 -0.1859
25475SOL    HW177866   7.224   0.375   7.398 -1.0999 -1.5018  0.3468
25475SOL    HW277867   7.365   0.324   7.379 -0.0799  0.3127  2.5684
25476SOL     OW77868   0.197   0.707   7.978 -0.9040  0.6550 -0.4150
25476SOL    HW177869   0.256   0.633   7.969 -1.5893  0.0554 -0.1230
25476SOL    HW277870   0.241   0.766   8.040  0.8151  1.7367 -2.5677
25477SOL     OW77871   7.057   0.452   6.702  0.1625  0.5073 -0.1474
25477SOL    HW177872   7.065   0.506   6.623  0.9499  0.1237 -0.3510
25477SOL    HW277873   7.089   0.366   6.674  1.3719  0.6079  0.8196
25478SOL     OW77874   6.289   5.452   7.896  0.3595 -0.3770  0.1838
25478SOL    HW177875   6.261   5.517   7.832  1.5430 -0.2515 -0.2177
25478SOL    HW277876   6.295   5.371   7.847 -1.0582 -0.8091  0.6723
25479SOL     OW77877   6.760   1.489  10.072 -0.5107  0.4817  0.3906
25479SOL    HW177878   6.745   1.521   9.983 -0.6860  0.6469  0.4784
25479SOL    HW277879   6.717   1.553  10.128  0.1358  0.7110  0.6300
25480SOL     OW77880   7.772   0.449   9.338 -0.6254  0.4826  0.6099
25480SOL    HW177881   7.853   0.499   9.336 -0.8253  0.7934 -0.4723
25480SOL    HW277882   7.800   0.358   9.346 -0.1981  0.6361  0.8950
25481SOL     OW77883   6.967   6.728   7.642  0.1778  0.1610  0.4451
25481SOL    HW177884   6.949   6.675   7.564 -0.5360  0.8901  0.0945
25481SOL    HW277885   6.971   6.665   7.714 -1.1028 -0.3438  0.1097
25482SOL     OW77886   1.285   0.034   8.400  0.3083 -0.0294  0.4496
25482SOL    HW177887   1.294   0.104   8.336 -0.2256 -2.1148 -2.0563
25482SOL    HW277888   1.345  -0.034   8.370  0.4968 -0.8689  2.5605
25483SOL     OW77889   6.200   7.298   9.696  0.6530  0.1441  0.2143
25483SOL    HW177890   6.224   7.223   9.751  1.3662 -0.7970 -1.3142
25483SOL    HW277891   6.280   7.318   9.648 -0.1428  0.4371 -1.0333
25484SOL     OW77892   0.216   7.833  10.126  0.5802  0.4311  0.5908
25484SOL    HW177893   0.238   7.892  10.198 -0.2066  2.7345 -0.9705
25484SOL    HW277894   0.175   7.888  10.060  0.6158 -1.7138 -1.3777
25485SOL     OW77895   0.828   0.755  11.589 -0.5070  0.4080 -0.5037
25485SOL    HW177896   0.831   0.838  11.638  0.4510  0.3200 -0.3929
25485SOL    HW277897   0.914   0.748  11.549  0.4042 -1.7791  1.5877
25486SOL     OW77898   0.803   0.232   9.437  0.1838 -0.0579  0.1463
25486SOL    HW177899   0.800   0.143   9.474 -1.3164  0.7113  2.0539
25486SOL    HW277900   0.740   0.230   9.365  0.4710 -0.6487 -0.0946
25487SOL     OW77901   7.141   0.192  11.456  0.2996  0.1506  0.2624
25487SOL    HW177902   7.058   0.184  11.502  0.1877  2.3918  0.5762
25487SOL    HW277903   7.145   0.115  11.399 -1.5954 -0.4209  0.8324
25488SOL     OW77904   0.773   7.632   9.575 -0.6192 -0.3105  0.1453
25488SOL    HW177905   0.782   7.628   9.479  3.1185  0.0260  0.3289
25488SOL    HW277906   0.786   7.542   9.604 -3.9238 -0.8476  0.3914
25489SOL     OW77907   0.209   0.491  11.301  0.6330  1.2474 -0.3227
25489SOL    HW177908   0.237   0.552  11.232 -1.1136  2.0070 -0.4097
25489SOL    HW277909   0.177   0.415  11.253  0.7691  1.1666 -0.2868
25490SOL     OW77910   0.041   6.641   7.562 -0.4889  0.0888  0.4910
25490SOL    HW177911   0.008   6.729   7.542 -0.5768 -0.3683 -1.6918
25490SOL    HW277912   0.057   6.642   7.656 -1.1071  2.2253  0.6338
25491SOL     OW77913   0.377   7.605   9.748  0.1318 -0.8245 -0.0113
25491SOL    HW177914   0.310   7.626   9.813  0.2388 -1.8926  0.4576
25491SOL    HW277915   0.367   7.511   9.732 -0.5025 -0.4242 -2.2501
25492SOL     OW77916   0.749   6.470   9.742 -0.0033  0.2842 -0.3447
25492SOL    HW177917   0.765   6.438   9.654 -0.4121 -2.0773  0.3742
25492SOL    HW277918   0.667   6.520   9.735  0.7325  1.4076 -1.5272
25493SOL     OW77919   7.058   0.631  10.207 -0.0149  0.5018  0.4543
25493SOL    HW177920   7.061   0.665  10.117 -0.3484  1.4081  0.7792
25493SOL    HW277921   7.113   0.691  10.257 -0.3106  0.3460  0.9724
25494SOL     OW77922   0.297   6.935  10.615 -0.2508  0.5237  0.7820
25494SOL    HW177923   0.331   7.023  10.623  1.6321 -0.1107  0.1569
25494SOL    HW277924   0.202   6.947  10.603 -0.0040  2.4398  0.4334
25495SOL     OW77925   0.309   7.891   9.675 -0.1537 -0.7214 -0.5184
25495SOL    HW177926   0.238   7.860   9.617 -0.3798 -1.1173 -0.0409
25495SOL    HW277927   0.362   7.813   9.690  0.8470 -0.2488 -1.5099
25496SOL     OW77928   5.630   5.967  11.383 -0.4433 -0.0555 -0.5719
25496SOL    HW177929   5.568   6.038  11.395  0.0815  0.4242 -0.6560
25496SOL    HW277930   5.598   5.897  11.439 -0.7189  0.4075 -0.1507
25497SOL     OW77931   0.318   6.613  11.949  0.4475 -0.2711  0.6052
25497SOL    HW177932   0.276   6.638  11.866  1.6363 -1.2568 -0.3255
25497SOL    HW277933   0.383   6.681  11.964  0.3145 -0.1576  0.6714
25498SOL     OW77934   0.224   0.346  11.037 -0.3802  0.0452  0.7305
25498SOL    HW177935   0.315   0.362  11.011 -0.6608  1.0975  0.3424
25498SOL    HW277936   0.173   0.398  10.976 -1.3415 -1.6425  0.0247
25499SOL     OW77937   0.192   0.006   9.905 -0.0931  0.6078  0.6300
25499SOL    HW177938   0.107  -0.031   9.879 -0.0464  0.3975  0.7780
25499SOL    HW277939   0.249  -0.011   9.830 -0.3810  1.4384  0.2081
25500SOL     OW77940   7.093   0.974  10.808  0.1558 -0.2964 -0.2991
25500SOL    HW177941   7.174   0.935  10.840 -0.9554 -2.9326 -0.4016
25500SOL    HW277942   7.081   1.053  10.861  1.5751 -1.1417  1.3776
25501SOL     OW77943   7.881   7.614   9.839  0.2073 -0.1820  0.1040
25501SOL    HW177944   7.902   7.533   9.886 -4.2943 -2.5086 -1.3005
25501SOL    HW277945   7.892   7.592   9.747 -2.2645  0.1999 -0.3734
25502SOL     OW77946   6.563   6.418   7.433  0.9406  0.1609 -0.0282
25502SOL    HW177947   6.477   6.409   7.473  2.1824 -1.9179  2.3863
25502SOL    HW277948   6.562   6.356   7.360  0.9155 -1.1409  1.0436
25503SOL     OW77949   0.933   7.039   9.448  0.0718  0.3373 -0.1583
25503SOL    HW177950   1.028   7.031   9.455  0.1910  2.2060  1.0516
25503SOL    HW277951   0.906   7.071   9.534 -1.4997  0.9706 -0.8543
25504SOL     OW77952   6.833   7.152   0.485 -0.5890  0.4759 -0.1590
25504SOL    HW177953   6.883   7.165   0.566  2.5256 -3.3984 -1.1141
25504SOL    HW277954   6.763   7.092   0.509 -2.1258  2.3935  0.3176
25505SOL     OW77955   6.318   6.939  10.400 -0.0133 -0.1267 -0.3575
25505SOL    HW177956   6.410   6.932  10.427  0.0513  0.3959 -0.4376
25505SOL    HW277957   6.320   6.927  10.305  0.2038  1.7134 -0.6220
25506SOL     OW77958   5.253   7.108   0.013 -0.4268 -0.4760 -0.2754
25506SOL    HW177959   5.200   7.188   0.012 -0.9772 -0.7951  1.1937
25506SOL    HW277960   5.228   7.062  -0.068 -2.6632 -0.7512  0.5010
25507SOL     OW77961   7.318   6.326  12.206  0.0715 -0.6518  1.0286
25507SOL    HW177962   7.388   6.314  12.270  0.6586  0.3375  0.5877
25507SOL    HW277963   7.248   6.368  12.256  0.7667  0.7066  0.9035
25508SOL     OW77964   7.307   7.265  11.798 -0.8521  0.0304  0.3304
25508SOL    HW177965   7.290   7.331  11.866 -0.0429  2.3475 -1.5524
25508SOL    HW277966   7.280   7.308  11.716  1.7528 -1.1163 -1.2542
25509SOL     OW77967   7.967   7.347  11.607  0.2409 -0.1515  0.1619
25509SOL    HW177968   8.037   7.386  11.555  1.1914 -0.2914  1.2892
25509SOL    HW277969   7.980   7.253  11.597 -0.0598 -0.1786  0.0212
25510SOL     OW77970   6.438   7.110  11.704 -0.0212 -0.1194 -0.0981
25510SOL    HW177971   6.524   7.131  11.739 -0.5676  1.4834  0.3814
25510SOL    HW277972   6.404   7.041  11.761  0.0138  0.8841  1.1595
25511SOL     OW77973   7.311   6.306  11.258 -0.2941  0.1688  0.0114
25511SOL    HW177974   7.281   6.260  11.180 -2.0767 -1.6314  1.6504
25511SOL    HW277975   7.352   6.238  11.312 -0.4162  1.0579  1.2764
25512SOL     OW77976   0.540   7.858  12.162  0.3812 -0.0316  0.8363
25512SOL    HW177977   0.581   7.944  12.151  1.2632 -0.4495  0.7786
25512SOL    HW277978   0.539   7.843  12.257  2.7202 -1.1000  0.7614
25513SOL     OW77979   0.828   7.137   0.122 -0.5816 -0.1556  0.2395
25513SOL    HW177980   0.826   7.147   0.217  0.0753  1.6531  0.1095
25513SOL    HW277981   0.920   7.122   0.101 -0.4989  0.8243 -0.1878
25514SOL     OW77982   0.100   5.584   0.163  0.4752 -0.5980 -0.7078
25514SOL    HW177983   0.147   5.535   0.230 -0.2740 -0.5101 -0.1070
25514SOL    HW277984   0.162   5.653   0.136  0.3356  0.1590  0.8149
25515SOL     OW77985   7.761   6.616   1.380 -0.3966 -0.0836  0.6618
25515SOL    HW177986   7.819   6.581   1.312  0.4419 -0.5550  1.5805
25515SOL    HW277987   7.701   6.674   1.334 -0.8669 -1.6003 -0.7121
25516SOL     OW77988   7.699   7.402  11.673 -0.2456  0.2567 -0.2362
25516SOL    HW177989   7.646   7.350  11.612  0.4098 -0.5191 -0.1563
25516SOL    HW277990   7.789   7.372  11.659  0.5094  2.9378 -1.7825
25517SOL     OW77991   5.505   7.055  12.257  0.1959  0.5778  0.1702
25517SOL    HW177992   5.583   7.013  12.294 -0.2099  0.5589  1.0489
25517SOL    HW277993   5.503   7.141  12.299  0.4553  1.0844 -0.8419
25518SOL     OW77994   7.371   5.753   0.602  0.1494 -0.3668 -0.1004
25518SOL    HW177995   7.456   5.788   0.573  0.6384 -0.6085  0.9762
25518SOL    HW277996   7.324   5.732   0.521  1.1415 -0.2873 -0.7099
25519SOL     OW77997   7.513   0.251   1.250 -0.0046  0.2359  0.2381
25519SOL    HW177998   7.528   0.188   1.179 -1.5997  1.1179 -0.9482
25519SOL    HW277999   7.426   0.229   1.282 -0.4688  1.6401 -0.0100
25520SOL     OW78000   6.805   7.117  10.523 -0.4509  0.5313  0.1194
25520SOL    HW178001   6.804   7.058  10.599 -1.2914  0.3291 -0.0448
25520SOL    HW278002   6.890   7.100  10.482 -0.0608  0.5098  0.9041
25521SOL     OW78003   7.430   5.769  12.011 -0.3107 -0.2304 -1.0848
25521SOL    HW178004   7.420   5.685  12.056  0.5784  0.9034  1.4439
25521SOL    HW278005   7.365   5.826  12.052 -1.7171  0.0885 -3.5797
25522SOL     OW78006   6.135   6.065  11.811  0.2792  0.3951 -0.0306
25522SOL    HW178007   6.053   6.110  11.791  0.7552  1.7700  0.9623
25522SOL    HW278008   6.160   6.098  11.897  0.3552 -2.2604  1.0397
25523NA      NA78009   7.211   1.943   2.205  0.1130 -0.7228 -0.0486
25524NA      NA78010   1.303   1.143   1.590 -0.3743  0.6754 -0.1913
25525NA      NA78011   2.349   1.901   1.634 -0.2011  0.0300 -0.2952
25526NA      NA78012   2.629   0.147   2.439  0.0853 -0.3940 -0.1257
25527NA      NA78013   2.616   1.378   3.729  0.0018  0.0103  0.6523
25528NA      NA78014   0.987   1.434   2.198 -0.0304  0.1250 -0.1857
25529NA      NA78015   1.312   0.701   4.862 -0.0374  0.4117  0.2053
25530NA      NA78016   0.221   1.158   5.625  0.0346  0.2055  0.2447
25531NA      NA78017   1.519   7.639   4.591  0.0318 -0.3842  0.4057
25532NA      NA78018   1.794   1.394   6.600  0.0876  0.5440 -0.0652
25533NA      NA78019   2.109   7.653   6.358 -0.0799 -0.0400  0.4840
25534NA      NA78020   0.666   1.993   6.137 -0.3081 -0.5232 -0.0238
25535NA      NA78021   0.465   1.123   7.127  0.3991  0.1961  0.0029
25536NA      NA78022   1.566   0.392   7.533  0.2112 -0.2809 -0.0738
25537NA      NA78023   1.847   0.570   8.062  0.4660 -0.2889 -0.0594
25538NA      NA78024   2.251   1.065  10.444 -0.1326 -0.0760 -0.0378
25539NA      NA78025   7.235   0.527   9.659 -0.0978  0.2501  0.4090
25540NA      NA78026   7.478   2.880  10.257  0.1062  0.4619  0.2073
25541NA      NA78027   7.921   0.867   0.819  0.0195  0.4622  0.0650
25542NA      NA78028   1.323   0.822  11.911 -0.0353 -0.3314 -0.4982
25543NA      NA78029   0.084   2.741   0.192 -0.5263 -0.0893  0.4447
25544NA      NA78030   0.832   1.967   1.510 -0.4122 -0.3092 -0.4206
25545NA      NA78031   1.387   3.370  12.286 -0.4464  0.1368 -0.3230
25546NA      NA78032   0.030   3.317   0.292  0.2162 -0.3256 -0.3514
25547NA      NA78033   7.969   3.272   2.063 -0.3879 -0.3464  0.3881
25548NA      NA78034   1.680   2.900   4.081  0.4078 -0.2681 -0.0826
25549NA      NA78035   1.234   3.781   3.122 -0.1874 -0.2043  0.5400
25550NA      NA78036   1.991   1.895   3.363  0.0043  0.4931  0.0642
25551NA      NA78037   7.385   3.934   4.188 -0.0128 -0.4108 -0.4425
25552NA      NA78038   1.245   2.167   4.945 -0.1702 -0.2121  0.0668
25553NA      NA78039   1.244   2.536   5.731 -0.3502  0.0288  0.6295
25554NA      NA78040   0.828   4.176   5.731 -0.0900 -0.0487 -0.6865
25555NA      NA78041   1.029   3.005   7.989  0.2053 -0.2030  0.3712
25556NA      NA78042   1.210   2.382   7.961  0.2395 -0.2136 -0.0720
25557NA      NA78043   7.391   2.637   9.395  0.5763  0.1452 -0.3741
25558NA      NA78044   2.804   3.298   8.619  0.0657 -0.1310 -0.0694
25559NA      NA78045   1.163   2.963  10.447  0.1239 -0.1443  0.2864
25560NA      NA78046   1.431   2.249  11.948  0.2094 -0.1868 -0.1716
25561NA      NA78047   1.409   4.982   1.930  0.0502 -0.0333  0.3342
25562NA      NA78048   0.751   5.035   1.782 -0.6563 -0.0974 -0.4430
25563NA      NA78049   2.193   3.993   3.643 -0.3116 -0.1860 -0.4529
25564NA      NA78050   0.754   5.312   4.690 -0.1780  0.4556 -0.3841
25565NA      NA78051   0.381   4.525   7.277  0.3385 -0.1643  0.1615
25566NA      NA78052   1.067   3.924   7.278  0.3253  0.4187  0.7498
25567NA      NA78053   0.606   3.040   9.223 -0.3752 -0.3910 -0.3091
25568NA      NA78054   2.695   4.888   8.645 -0.2226  0.0693  0.0000
25569NA      NA78055   0.337   5.392  10.062  0.3506  0.2181  0.5777
25570NA      NA78056   1.549   4.420   9.631 -0.1845  0.4182  0.0831
25571NA      NA78057   1.114   6.170  10.418  0.3183  0.0924  0.4673
25572NA      NA78058   0.661   4.738   9.674 -0.1619 -0.5880  0.1247
25573NA      NA78059   1.236   3.948  11.626 -0.5357 -0.1171  0.2167
25574NA      NA78060   1.289   6.238   1.838 -0.3104  0.0637 -0.2234
25575NA      NA78061   1.663   6.103   2.861  0.1230 -0.1418 -0.1319
25576NA      NA78062   0.773   6.213  12.259 -0.1244 -0.1457  0.1184
25577NA      NA78063   7.013   6.077   0.751  0.2390  0.3260  0.1235
25578NA      NA78064   0.221   6.663   1.213  0.3284  0.1446 -0.1224
25579NA      NA78065   1.960   6.020   0.869  0.0178  1.1033  0.2388
25580NA      NA78066   1.972   6.724   2.757 -0.0166  0.2217  0.3850
25581NA      NA78067   0.692   6.821   4.290 -0.1587 -0.3076 -0.2727
25582NA      NA78068   0.087   7.757   5.069  0.0846 -0.0017  0.3575
25583NA      NA78069   7.151   6.128   7.117 -0.1025 -0.0328  0.3891
25584NA      NA78070   1.068   6.434   6.321 -0.0229 -0.0862 -0.2610
25585NA      NA78071   7.956   5.385   8.484 -0.3721  0.4805 -0.0810
25586NA      NA78072   7.704   5.326   5.962 -0.4007 -0.2145  0.2244
25587NA      NA78073   7.099   0.531   6.931  0.3094  0.1624  0.0023
25588NA      NA78074   6.455   5.988  10.256 -0.5551  0.0105 -0.0802
25589NA      NA78075   0.863   6.895   9.011 -0.0155  0.2445 -0.6387
25590NA      NA78076   1.141   6.222  11.663  0.0687 -0.7972 -0.5077
25591NA      NA78077   1.087   0.348   2.350  0.4205 -0.2127  0.0986
25592NA      NA78078   1.349   6.930   2.548 -0.0009  0.1322  0.5458
25593NA      NA78079   2.268   7.494   8.867 -0.0190 -0.3146 -0.4417
25594NA      NA78080   0.614   7.197   7.973  0.3579  0.5311 -0.5632
25595NA      NA78081   0.718   0.360   9.925  0.1736  0.0380  0.0011
25596NA      NA78082   1.128   6.989  10.025 -0.5332  0.1434 -0.0377
25597NA      NA78083   1.992   1.255   0.850  0.2149  0.1017  0.0421
25598NA      NA78084   2.456   0.681   1.170 -0.1112 -0.0461 -0.2455
25599NA      NA78085   3.082   1.732   0.806 -0.1452  0.5874  0.3068
25600NA      NA78086   3.834   0.184   2.860 -0.1330 -0.0608 -0.2240
25601NA      NA78087   1.158   0.570   0.483 -0.1536  0.1299  0.1660
25602NA      NA78088   3.272   7.628   4.931  0.2648 -0.3524 -0.1254
25603NA      NA78089   4.107   2.604   9.169 -0.4149 -0.2565  0.0671
25604NA      NA78090   3.517   2.318   7.129 -0.4427  0.4831 -0.4539
25605NA      NA78091   3.662   7.948   9.638 -0.7928  0.0012 -0.2011
25606NA      NA78092   4.321   7.170   8.411 -0.0284 -0.2229  0.2352
25607NA      NA78093   2.083   0.263   7.252  0.4352  0.2544  0.1201
25608NA      NA78094   2.951   7.208   7.757  0.0131 -0.2241  0.2632
25609NA      NA78095   3.814   1.134   9.738 -0.1724 -0.0993  0.5327
25610NA      NA78096   1.857   7.952  10.499 -0.3223  0.1515 -0.1912
25611NA      NA78097   2.816   0.855  11.285 -0.1138  0.1840  0.3050
25612NA      NA78098   3.157   3.222   0.614  0.4090  0.3166 -0.2274
25613NA      NA78099   0.474   3.334   2.319 -0.1821 -0.0099  0.0210
25614NA      NA78100   2.140   2.263   3.564  0.0415 -0.0585 -0.2130
25615NA      NA78101   4.092   1.220   4.618 -0.1261 -0.5684  0.0223
25616NA      NA78102   3.851   3.887   7.631  0.2415  0.2801  0.0307
25617NA      NA78103   2.641   3.313   7.381 -0.3442 -0.2092  0.1337
25618NA      NA78104   2.604   4.435   6.141  0.4374  0.6739  0.4004
25619NA      NA78105   2.795   4.024   5.402 -0.1088 -0.0999 -0.5896
25620NA      NA78106   2.681   4.338  10.361 -0.3198 -0.1354 -0.4390
25621NA      NA78107   2.802   2.758   8.642 -0.0936 -0.1279  0.5951
25622NA      NA78108   3.282   2.417  11.956  0.2265 -0.0319  0.2353
25623NA      NA78109   0.440   2.025   0.333  0.2496  0.4493  0.2683
25624NA      NA78110   3.373   5.881   2.170  0.3322  0.5918  0.5065
25625NA      NA78111   2.944   4.884   2.965  0.1891 -0.1352  0.1105
25626NA      NA78112   1.811   4.920   5.522 -0.4026 -0.1258  0.1554
25627NA      NA78113   2.489   4.353   7.134 -0.4792 -0.2731  0.2618
25628NA      NA78114   2.242   5.274   9.336 -0.2091 -0.3489 -0.2402
25629NA      NA78115   2.762   5.149  11.630 -0.2201 -0.0087  0.0739
25630NA      NA78116   3.162   4.216  10.692 -0.1591  0.0412  0.1207
25631NA      NA78117   1.488   6.379   0.771 -0.3526 -0.2153  0.1201
25632NA      NA78118   3.758   6.233   3.016  0.3966  0.1979 -0.8604
25633NA      NA78119   1.858   7.943   2.686  0.1406  0.3738  0.1086
25634NA      NA78120   2.741   5.416   5.196  0.0340 -0.0578  0.7158
25635NA      NA78121   2.119   5.674   7.142  0.0203  0.0885  0.4159
25636NA      NA78122   4.160   4.478   6.558  0.3413  0.3184  0.2426
25637NA      NA78123   2.271   4.936   7.524  0.2301 -0.4105 -0.0585
25638NA      NA78124   3.601   5.350  10.111 -0.4609 -0.5189 -0.7181
25639NA      NA78125   2.159   7.073   7.948 -0.0842  0.0856  0.3602
25640NA      NA78126   1.777   6.181  10.150 -0.1680 -0.1922 -0.0997
25641NA      NA78127   1.942   6.225  11.195 -0.0467  0.0325 -0.7186
25642NA      NA78128   3.624   6.854  10.349  0.1196 -0.3778  0.5446
25643NA      NA78129   2.985   6.467  10.437 -0.0966 -0.0551  0.4677
25644NA      NA78130   4.373   0.211   1.474 -0.1965  0.0770 -0.1159
25645NA      NA78131   3.698   7.799   5.615  0.0133  0.0369  0.2518
25646NA      NA78132   3.496   6.530   6.257 -0.3982 -0.1279 -0.0139
25647NA      NA78133   1.337   6.434   7.572 -0.5879  0.1319  0.2089
25648NA      NA78134   1.120   0.464  10.929 -0.5589  0.4873 -0.0536
25649NA      NA78135   1.908   0.523  11.988  0.1105  0.0655 -0.0720
25650NA      NA78136   3.619   7.688   0.828  0.3790  0.3857  0.1265
25651NA      NA78137   4.031   0.564   0.671 -0.5045  0.0111  0.0628
25652NA      NA78138   3.523   1.802   1.894 -0.1076  0.1246 -0.3157
25653NA      NA78139   4.649   7.610   0.076 -0.0863 -0.0742 -0.2120
25654NA      NA78140   4.819   1.034   3.987  0.0486  0.1198  0.0502
25655NA      NA78141   5.371   2.057   4.396  0.1379 -0.0426  0.0669
25656NA      NA78142   5.717   2.202   1.168 -0.3167 -0.7130  0.7254
25657NA      NA78143   4.275   1.533   5.140  0.1504  0.1653 -0.0089
25658NA      NA78144   3.345   0.339   4.557 -0.3644 -0.4451  0.3095
25659NA      NA78145   4.469   2.564   7.498  0.0279 -0.0606  0.3074
25660NA      NA78146   4.763   0.311   6.112 -0.4882  0.3834 -0.1894
25661NA      NA78147   5.013   1.244   6.514 -0.2955 -0.1028  0.0861
25662NA      NA78148   5.299   1.853   7.300 -0.0088  0.0387  0.1736
25663NA      NA78149   3.104   1.398   5.769 -0.3043 -0.3560  0.2955
25664NA      NA78150   5.303   0.674   8.006  0.0050  0.0897 -0.3280
25665NA      NA78151   3.976   0.543  11.939 -0.0023 -0.3428 -0.1243
25666NA      NA78152   5.251   1.476  11.142 -0.2029 -0.1241  0.5009
25667NA      NA78153   3.625   2.622   1.668  0.0599 -0.1050 -0.1708
25668NA      NA78154   5.064   3.841  11.667 -0.0284  0.3044 -0.3056
25669NA      NA78155   3.752   2.571   3.286 -0.3633  0.0742  0.4116
25670NA      NA78156   4.822   2.466   2.980 -0.0972  0.0269 -0.1601
25671NA      NA78157   4.648   3.022   5.312  0.5877 -0.4466  0.3967
25672NA      NA78158   5.215   3.083   5.920 -0.0094  0.0956  0.1648
25673NA      NA78159   4.540   3.678   5.452  0.0161  0.1053  0.2876
25674NA      NA78160   5.162   1.302  10.193 -0.0694  0.5777  0.6889
25675NA      NA78161   4.126   2.733   0.148  0.2105 -0.0068  0.2661
25676NA      NA78162   4.787   2.525  11.110  0.4224 -0.5525 -0.2605
25677NA      NA78163   4.808   5.674   0.950 -0.1252  0.2796 -0.3329
25678NA      NA78164   4.320   3.849   2.660 -0.0540  0.1607  0.3701
25679NA      NA78165   4.638   4.506   3.003  0.1439  0.1368  0.0958
25680NA      NA78166   4.474   4.750   9.586 -0.0229 -0.1873 -0.2476
25681NA      NA78167   3.668   4.689   9.559 -0.0465  0.0076 -0.2480
25682NA      NA78168   5.029   4.201   9.301 -0.0394 -0.6304  0.0817
25683NA      NA78169   5.060   4.818   8.864  0.0435  0.2825  0.3720
25684NA      NA78170   4.544   6.068   0.181  0.0279 -0.2142 -0.0610
25685NA      NA78171   6.388   6.091   4.258  0.4248  0.0295 -0.4391
25686NA      NA78172   4.862   7.725   2.276 -0.1183  0.3672 -0.4167
25687NA      NA78173   4.628   6.811   3.008 -0.0220  0.0756 -0.4265
25688NA      NA78174   3.559   5.924   4.503  0.2412  0.2523 -0.6150
25689NA      NA78175   4.251   5.484   5.957 -0.3029  0.0413 -0.0905
25690NA      NA78176   4.321   5.830   5.698  0.0047  0.1087  0.0845
25691NA      NA78177   5.080   5.681   5.349 -0.0282  0.3828 -0.1771
25692NA      NA78178   5.108   7.101   7.596 -0.4406 -0.0563 -0.1889
25693NA      NA78179   4.670   5.665   7.146 -0.0511  0.4054  0.4779
25694NA      NA78180   5.804   7.481   9.185  0.2400 -0.2431 -0.1872
25695NA      NA78181   4.338   5.138   7.695 -0.5114 -0.2993  0.5927
25696NA      NA78182   3.058   6.837  11.476  0.1853  0.0874  0.5663
25697NA      NA78183   3.487   5.569   0.273 -0.3275 -0.2615  0.1634
25698NA      NA78184   5.682   6.616  10.417 -0.1820 -0.2368 -0.2688
25699NA      NA78185   5.550   7.943   2.786  0.1424 -0.5622  0.4262
25700NA      NA78186   3.530   7.384   7.249  0.1342 -0.1157  0.0453
25701NA      NA78187   3.720   7.667  10.425 -0.6286 -0.0954  0.5124
25702NA      NA78188   3.832   7.421  11.859  0.0933 -0.2093 -0.1600
25703NA      NA78189   5.570   1.575   3.133 -0.7167  0.0135 -0.1916
25704NA      NA78190   5.725   0.874   1.757  0.1311  0.2070  0.3655
25705NA      NA78191   5.107   0.764   5.215  0.2845  0.0796  0.2794
25706NA      NA78192   4.843   1.076   5.729  0.0561 -0.4734 -0.1664
25707NA      NA78193   6.561   1.898   4.415  0.0112  0.1578  0.4608
25708NA      NA78194   7.686   0.062   5.411  0.3176  0.2546 -0.0177
25709NA      NA78195   6.839   7.866   6.030 -0.1528 -0.5901  0.0453
25710NA      NA78196   5.395   2.695   7.090 -0.7052 -0.2753  0.2075
25711NA      NA78197   7.043   2.428   6.471 -0.1930  0.2799 -0.2494
25712NA      NA78198   5.587   0.968   9.034 -0.1484 -0.0003  0.0228
25713NA      NA78199   7.307   2.370   7.828 -0.3180 -0.0241  0.0587
25714NA      NA78200   5.688   0.442   7.401  0.3972 -0.2129 -0.2440
25715NA      NA78201   6.505   1.442   9.404  0.0090  0.0496  0.0440
25716NA      NA78202   6.991   7.975   9.033 -0.4020  0.1927 -0.8857
25717NA      NA78203   0.052   0.477  11.735 -0.2897  0.4194 -0.8462
25718NA      NA78204   0.355   1.404  10.864  0.3960 -0.1044 -0.1089
25719NA      NA78205   6.440   0.168   9.882  0.2133 -0.4533 -0.2221
25720NA      NA78206   5.720   7.984  11.048  0.2882 -0.0014 -0.5889
25721NA      NA78207   4.838   7.770  10.412 -0.0794 -0.0813 -0.0213
25722NA      NA78208   7.085   2.991   1.103 -0.0310 -0.2054  0.5960
25723NA      NA78209   5.122   3.679   2.866 -0.2289  0.3454 -0.1897
25724NA      NA78210   6.565   4.251   2.748 -0.1053  0.2186 -0.6176
25725NA      NA78211   7.234   3.220   5.967  0.0761 -0.1012 -0.1495
25726NA      NA78212   5.709   2.944   5.694  0.1150  0.3738 -0.0246
25727NA      NA78213   7.298   3.174   8.893 -0.5697 -0.2073 -0.4115
25728NA      NA78214   6.400   2.780  10.627  0.5603  0.4391  0.2915
25729NA      NA78215   6.100   1.293  10.427  0.7250 -0.3210 -0.2250
25730NA      NA78216   5.095   2.618  12.044  0.2626 -0.1816  0.1780
25731NA      NA78217   6.919   0.861   0.597  0.0179 -0.5601 -0.9843
25732NA      NA78218   7.216   4.480   0.700  0.2149  0.0906 -0.0980
25733NA      NA78219   0.090   5.290   1.991 -0.0603 -0.0988 -0.5179
25734NA      NA78220   6.974   6.028   1.374 -0.1317  0.1808 -0.0574
25735NA      NA78221   6.661   5.969   3.687 -0.0482  0.4996 -0.4472
25736NA      NA78222   6.306   4.918   2.091  0.0996 -0.5949  0.5650
25737NA      NA78223   7.398   4.761   3.949  0.1655 -0.1920 -0.0642
25738NA      NA78224   6.584   4.434   5.235 -0.1327 -0.3359  0.4044
25739NA      NA78225   4.584   4.246   5.623  0.1429  0.4445  0.0237
25740NA      NA78226   6.797   4.009   8.011  0.6275 -0.2326  0.2599
25741NA      NA78227   5.693   3.815   7.177  0.6606 -0.1836  0.0351
25742NA      NA78228   6.077   4.964   9.433 -0.5471  0.0166  0.0940
25743NA      NA78229   5.465   3.611  10.491  0.3889 -0.2103  0.4309
25744NA      NA78230   6.218   5.014  11.464 -0.0328 -0.2240  0.1374
25745NA      NA78231   6.377   4.480  11.642 -0.2668 -0.3596  0.0553
25746NA      NA78232   6.095   3.250  10.732  0.7922 -0.0682 -0.0984
25747NA      NA78233   7.687   3.916  11.803 -0.1896  0.0270 -0.2580
25748NA      NA78234   5.603   4.077   0.025 -0.0744 -0.3635  0.8409
25749NA      NA78235   6.105   7.207   0.358  0.0648  0.0139  0.6749
25750NA      NA78236   6.875   6.890   0.676 -0.0283  0.2985 -0.2314
25751NA      NA78237   7.829   6.906   0.294  0.0812 -0.4654  0.1997
25752NA      NA78238   7.280   0.807  11.799  0.2860 -0.1004 -0.5041
25753NA      NA78239   6.277   5.760   0.805  0.4871 -0.2578 -0.1598
25754NA      NA78240   7.813   7.675   2.908  0.2419 -0.4882  0.3227
25755NA      NA78241   7.949   0.451   3.745  0.0495 -0.2770  0.3548
25756NA      NA78242   5.740   0.448   5.410  0.0607  0.0080 -0.4909
25757NA      NA78243   6.784   6.627   4.485  0.0952 -0.0637  0.0797
25758NA      NA78244   5.776   5.581   4.810  0.2968  0.0143  0.2602
25759NA      NA78245   5.432   5.527   6.854 -0.3053 -0.4129  0.1015
25760NA      NA78246   7.187   6.969   8.705 -0.2787  0.2957 -0.2017
25761NA      NA78247   4.731   7.522   8.119 -0.1004  0.1252  0.6084
25762NA      NA78248   6.883   6.624  10.289 -0.4866 -0.2969 -0.4462
25763NA      NA78249   5.405   5.657  10.032 -0.3533 -0.0547 -0.6733
25764NA      NA78250   5.538   6.448  12.432  0.0853  0.0510 -0.1169
25765NA      NA78251   5.910   5.500  12.091  0.1785 -0.0524  0.2221
25766NA      NA78252   6.357   5.380  12.484  0.1398  0.3395 -0.1588
25767NA      NA78253   6.505   0.078   1.045  0.3736 -0.0901  0.6696
25768NA      NA78254   5.567   0.623   2.518 -0.5856 -0.3147 -0.1054
25769NA      NA78255   5.673   7.662   4.418  0.0303  0.5372  0.0119
25770NA      NA78256   5.260   7.718   7.033  0.8192 -0.4749 -0.4400
25771NA      NA78257   6.583   2.130   1.531 -0.6181 -0.0137  0.1694
25772NA      NA78258   7.848   2.417   3.351  0.1026 -0.0096  0.5700
25773NA      NA78259   0.470   0.840   3.382  0.1097 -0.2152 -0.1204
25774NA      NA78260   0.677   0.866   6.644  0.2893  0.1218 -0.2331
25775NA      NA78261   0.305   2.508   9.976 -0.3378  0.0938  0.1904
25776NA      NA78262   6.909   2.715   1.039  0.2173  0.2885  0.2669
25777NA      NA78263   7.404   1.818   4.856  0.0781 -0.1829 -0.5271
25778NA      NA78264   0.808   2.117   7.137  0.1589  0.0012 -0.4875
25779NA      NA78265   7.004   3.984   8.539  0.1018 -0.3440  0.0780
25780NA      NA78266   7.608   2.727  11.836 -0.2854 -0.2800  0.0181
25781NA      NA78267   0.225   5.441   2.925  0.3510  0.5431  0.3612
25782NA      NA78268   7.030   5.973   7.699  0.0792  0.0235 -0.3111
25783NA      NA78269   7.504   5.182  11.115 -0.0557  0.4441 -0.0157
25784NA      NA78270   0.601   4.360   0.723 -0.3885 -0.2663  0.7783
25785NA      NA78271   0.977   7.191   3.536  0.5028 -0.2940 -0.1090
25786NA      NA78272   7.750   6.707   4.770 -0.6373 -0.0998  0.5655
25787NA      NA78273   0.116   5.526   6.609  0.3265 -0.6517  0.0029
25788CL      CL78274   1.128   6.593   1.203 -0.0276 -0.0805  0.2276
25789CL      CL78275   1.366   0.802  12.427 -0.0234  0.3319 -0.3272
25790CL      CL78276   0.744   0.957   2.127 -0.1716  0.0124  0.3537
25791CL      CL78277   0.082   1.852   4.720  0.2526 -0.4834 -0.1173
25792CL      CL78278   1.276   1.364   6.861  0.1977 -0.1477 -0.2136
25793CL      CL78279   7.355   0.862   7.263  0.4901  0.3609 -0.5234
25794CL      CL78280   1.386   0.887   6.813 -0.0916 -0.0515  0.3121
25795CL      CL78281   0.332   3.906   6.758 -0.0442 -0.3630 -0.1171
25796CL      CL78282   0.248   1.437  11.112 -0.0979  0.3078 -0.0812
25797CL      CL78283   7.763   0.823  10.078  0.1328  0.1580 -0.1659
25798CL      CL78284   1.611   2.715  12.280  0.3231  0.2684  0.5789
25799CL      CL78285   0.475   2.241   3.199 -0.4125  0.1252 -0.1207
25800CL      CL78286   1.346   2.835   4.623 -0.2035 -0.4263  0.4235
25801CL      CL78287   0.470   3.348   3.165  0.1099 -0.1580 -0.2242
25802CL      CL78288   7.405   2.670   4.969  0.4820 -0.1345 -0.0742
25803CL      CL78289   2.099   2.936   8.691  0.6909  0.1677  0.3563
25804CL      CL78290   1.306   3.907   9.932 -0.3688 -0.2648 -0.0475
25805CL      CL78291   7.649   1.967  10.412  0.1608 -0.3638  0.6015
25806CL      CL78292   1.240   2.731  11.960  0.2365  0.2933 -0.2956
25807CL      CL78293   0.357   4.213  11.197 -0.2881  0.2171  0.0881
25808CL      CL78294   0.532   1.602   0.869 -0.4923 -0.0652 -0.0847
25809CL      CL78295   7.811   4.526  12.131 -0.3610  0.1952  0.0175
25810CL      CL78296   7.831   5.310   3.103  0.1553 -0.4710  0.6712
25811CL      CL78297   1.616   3.532   1.756  0.0663 -0.0071 -0.3676
25812CL      CL78298   1.470   3.358   3.202 -0.1352  0.0957 -0.2227
25813CL      CL78299   6.933   4.845   3.310 -0.3811 -0.4531  0.4431
25814CL      CL78300   1.772   6.345   4.661  0.3272  0.2400 -0.1312
25815CL      CL78301   0.811   2.666   5.893 -0.4569  0.0139  0.2364
25816CL      CL78302   6.890   4.628   4.394  0.1146 -0.4728 -0.3001
25817CL      CL78303   1.839   2.299   8.305 -0.0556 -0.3523 -0.0963
25818CL      CL78304   0.699   6.644   5.820 -0.1775  0.1670 -0.3297
25819CL      CL78305   7.802   4.606   9.227  0.2333  0.5052  0.0588
25820CL      CL78306   0.425   5.345   9.491 -0.2395  0.4715  0.2409
25821CL      CL78307   1.695   4.789   9.940  0.1627 -0.2657  0.0017
25822CL      CL78308   7.728   4.119  10.482  0.1666  0.2953  0.4263
25823CL      CL78309   0.602   4.336   0.012 -0.0013  0.1231  0.1399
25824CL      CL78310   0.876   5.855   2.711 -0.0341 -0.3270 -0.0167
25825CL      CL78311   1.634   7.902   4.481 -0.2569 -0.3251 -0.5311
25826CL      CL78312   7.598   4.448   4.585  0.4353 -0.0243 -0.0970
25827CL      CL78313   1.339   0.426   6.238 -0.0074  0.1978 -0.3503
25828CL      CL78314   1.094   7.151  10.450 -0.3054  0.6597 -0.5081
25829CL      CL78315   0.833   7.623   9.273  0.0525  0.1727 -0.3506
25830CL      CL78316   1.299   6.535  11.313 -0.2325  0.0937 -0.0016
25831CL      CL78317   0.437   7.614   8.002  0.7967  0.0162  0.3138
25832CL      CL78318   1.010   6.449  11.922 -0.0845 -0.2125 -0.0298
25833CL      CL78319   2.312   0.953   0.504  0.1404  0.0564  0.4796
25834CL      CL78320   0.980   0.016   2.711  0.2456 -0.2958 -0.1088
25835CL      CL78321   3.125   2.385   2.668 -0.5760  0.2457  0.1441
25836CL      CL78322   2.400   0.478   4.416 -0.2505 -0.0413  0.1866
25837CL      CL78323   2.525   1.992   8.290  0.3021  0.0576 -0.2364
25838CL      CL78324   2.914   1.185   8.977  0.1125  0.1871 -0.4106
25839CL      CL78325   1.425   7.750   7.930 -0.0382 -0.2880  0.1747
25840CL      CL78326   3.038   0.873  10.468  0.2435  0.0100  0.0531
25841CL      CL78327   1.219   1.562  11.631 -0.1157  0.3076  0.0059
25842CL      CL78328   2.256   1.296  11.748 -0.2480 -0.0045  0.1939
25843CL      CL78329   2.342   3.205  11.904 -0.0388 -0.0740 -0.0082
25844CL      CL78330   4.548   2.516   1.512 -0.0611 -0.1558 -0.2910
25845CL      CL78331   2.102   1.820   1.610  0.2545  0.3463  0.0659
25846CL      CL78332   2.041   2.653   2.623 -0.3341  0.0481  0.5133
25847CL      CL78333   1.923   2.662   3.570  0.0029 -0.4759  0.1622
25848CL      CL78334   5.306   1.576   6.865 -0.1149  0.0863  0.0604
25849CL      CL78335   2.289   5.060   0.124  0.0354  0.1798 -0.3856
25850CL      CL78336   2.936   2.252   0.849  0.2829 -0.1873  0.4042
25851CL      CL78337   1.377   4.939   5.299  0.1224  0.7681 -0.4029
25852CL      CL78338   1.159   6.216   3.872 -0.2521 -0.0608 -0.2707
25853CL      CL78339   0.143   4.263   6.533  0.4417 -0.3988  0.4300
25854CL      CL78340   0.762   5.823   8.022 -0.4251  0.4743 -0.4446
25855CL      CL78341   3.494   4.975  11.036  0.1676  0.1570  0.2030
25856CL      CL78342   2.276   4.654  10.534  0.4386  0.3621  0.1742
25857CL      CL78343   1.770   6.059   1.309  0.2204  0.0223 -0.1255
25858CL      CL78344   2.235   6.797   1.003  0.0118 -0.2555  0.2831
25859CL      CL78345   1.462   6.451   1.386  0.3988 -0.2851  0.1140
25860CL      CL78346   1.201   6.705   2.579 -0.2224 -0.1877 -0.2332
25861CL      CL78347   3.028   0.465   2.367 -0.1266  0.1329  0.2851
25862CL      CL78348   3.416   7.429   5.884  0.0205  0.0123 -0.1083
25863CL      CL78349   3.063   6.153   4.950  0.0071  0.0233  0.2546
25864CL      CL78350   3.614   7.924   4.702 -0.2760  0.1081 -0.2816
25865CL      CL78351   4.413   6.411   2.805 -0.3611  0.1969  0.4152
25866CL      CL78352   4.426   7.674   4.672 -0.2073  0.2473 -0.0923
25867CL      CL78353   3.298   6.101   4.245  0.1042  0.1552 -0.0826
25868CL      CL78354   1.698   0.064   7.090 -0.1167 -0.1952  0.0478
25869CL      CL78355   1.454   6.710   7.151 -0.0392 -0.2519 -0.0744
25870CL      CL78356   2.126   6.274   7.410  0.3967  0.1849 -0.2427
25871CL      CL78357   2.555   6.999   7.076 -0.3873 -0.0427 -0.1588
25872CL      CL78358   2.128   4.951   8.852  0.1145  0.1393  0.3258
25873CL      CL78359   1.467   6.288   9.606  0.0280  0.2847 -0.0377
25874CL      CL78360   2.524   5.602  11.508 -0.5010  0.1965  0.0652
25875CL      CL78361   1.572   0.992  11.206  0.4447  0.3952 -0.1498
25876CL      CL78362   3.047   7.203  12.051  0.0592 -0.1408 -0.0615
25877CL      CL78363   3.371   6.013  11.783 -0.0474  0.0541 -0.1698
25878CL      CL78364   2.747   7.895   0.928 -0.0769 -0.1055  0.1552
25879CL      CL78365   1.801   7.429   2.888 -0.4725 -0.1748  0.0996
25880CL      CL78366   1.396   7.509   2.207  0.1647  0.0889  0.0972
25881CL      CL78367   4.190   0.294   1.661 -0.1877 -0.1306  0.2130
25882CL      CL78368   2.357   7.057   2.980 -0.0098  0.3114 -0.0095
25883CL      CL78369   2.711   0.159  11.014  0.0289 -0.0162 -0.4282
25884CL      CL78370   4.406   0.346  12.470 -0.0324 -0.2190  0.3622
25885CL      CL78371   2.987   0.911   1.074 -0.0232 -0.1829  0.1672
25886CL      CL78372   4.424   7.403  11.906  0.3119  0.0935 -0.3854
25887CL      CL78373   5.138   0.201   4.397 -0.5891 -0.4590  0.2099
25888CL      CL78374   6.293   0.721   1.728  0.2590 -0.1389 -0.5374
25889CL      CL78375   2.959   0.156   1.480 -0.1798  0.1035 -0.2958
25890CL      CL78376   3.712   7.691   2.430 -0.0838  0.1652  0.5217
25891CL      CL78377   3.446   1.244   1.594  0.5340 -0.0089  0.2124
25892CL      CL78378   5.857   1.793   4.827 -0.0594 -0.0072  0.5002
25893CL      CL78379   4.960   0.367   5.520  0.2191 -0.5228 -0.5062
25894CL      CL78380   6.273   2.398   5.406  0.1313  0.0439 -0.2354
25895CL      CL78381   4.147   0.780   9.605 -0.2110  0.0068 -0.4193
25896CL      CL78382   2.371   0.225   8.259 -0.2611 -0.1861 -0.2343
25897CL      CL78383   5.038   7.752   7.160  0.6392  0.1688 -0.4115
25898CL      CL78384   5.715   0.908   9.554  0.1053 -0.0985 -0.2148
25899CL      CL78385   4.412   0.367  11.385 -0.0161  0.1916 -0.6226
25900CL      CL78386   3.447   2.701   1.484  0.1375 -0.0456  0.0383
25901CL      CL78387   4.038   1.905   5.156  0.1371  0.0094  0.1646
25902CL      CL78388   4.597   1.421   3.106  0.2028  0.0184  0.1464
25903CL      CL78389   3.850   1.810   8.307 -0.0396  0.0757 -0.1542
25904CL      CL78390   5.510   2.465   6.154 -0.1658 -0.0601 -0.2173
25905CL      CL78391   4.941   1.326   8.123 -0.4219  0.2052 -0.0045
25906CL      CL78392   6.060   1.929   7.366  0.1204  0.0928  0.0472
25907CL      CL78393   3.596   3.495  12.041 -0.1864  0.1038  0.3272
25908CL      CL78394   3.269   4.467  10.121  0.1406 -0.3801  0.2124
25909CL      CL78395   4.883   4.429  10.625  0.0517 -0.0058  0.2714
25910CL      CL78396   5.214   6.006  11.615 -0.1372 -0.2697  0.2713
25911CL      CL78397   3.179   5.086  11.882  0.2130 -0.3556  0.1487
25912CL      CL78398   4.263   5.533   0.059 -0.1399  0.2777  0.3147
25913CL      CL78399   6.113   6.178  12.103 -0.0069  0.1448 -0.1687
25914CL      CL78400   5.431   6.619   1.932 -0.0755 -0.0946 -0.3999
25915CL      CL78401   5.297   5.139   1.171  0.4086  0.2115 -0.2060
25916CL      CL78402   5.465   0.049   1.989  0.0518 -0.0454 -0.2142
25917CL      CL78403   4.995   5.484   3.642  0.0710 -0.5305 -0.4390
25918CL      CL78404   5.284   0.876   2.380 -0.1038  0.1985  0.1495
25919CL      CL78405   5.607   6.867   4.689  0.4673  0.0052 -0.2909
25920CL      CL78406   6.017   5.196   4.820  0.0277  0.0472  0.2122
25921CL      CL78407   5.141   6.937   6.340  0.3187 -0.4713  0.0461
25922CL      CL78408   3.686   7.446   6.981 -0.1557  0.2788  0.0096
25923CL      CL78409   4.947   6.014   7.328 -0.1461  0.1408  0.0272
25924CL      CL78410   3.950   7.047  10.604  0.1157  0.4309 -0.0545
25925CL      CL78411   5.307   7.815   9.467 -0.0686 -0.1626  0.2637
25926CL      CL78412   4.579   6.830  10.838 -0.0282 -0.3190  0.0335
25927CL      CL78413   4.840   3.717  12.233  0.2392 -0.6153 -0.1296
25928CL      CL78414   2.836   7.603  11.892 -0.0939  0.1150  0.0832
25929CL      CL78415   3.714   0.226   7.492  0.3319  0.2823  0.4607
25930CL      CL78416   4.007   7.588   9.559  0.3049 -0.0849  0.1171
25931CL      CL78417   5.922   0.875   1.008 -0.2459 -0.0925  0.1102
25932CL      CL78418   6.540   1.000  11.919 -0.4846 -0.2513  0.5936
25933CL      CL78419   7.006   0.115   0.779  0.1662  0.3002  0.3647
25934CL      CL78420   7.577   0.681   3.481  0.2445 -0.1974 -0.4985
25935CL      CL78421   7.385   1.011   3.111  0.2363 -0.0317 -0.0252
25936CL      CL78422   6.460   1.374   3.868 -0.0375  0.4809  0.1583
25937CL      CL78423   7.668   1.716   6.429  0.4398 -0.1303 -0.3164
25938CL      CL78424   6.597   1.964   8.029  0.1499 -0.1557  0.2747
25939CL      CL78425   6.087   7.972  11.575  0.2891 -0.1637  0.1505
25940CL      CL78426   6.233   7.790   9.287 -0.1729  0.4453 -0.3493
25941CL      CL78427   6.697   1.666   9.753  0.2049 -0.2148  0.0361
25942CL      CL78428   5.389   1.922  10.196  0.5500  0.0108  0.3139
25943CL      CL78429   4.817   3.400  11.562 -0.2398 -0.0989 -0.6709
25944CL      CL78430   7.690   2.595   0.967  0.0237 -0.3272  0.0297
25945CL      CL78431   6.070   3.578   0.734  0.1779 -0.1449  0.0301
25946CL      CL78432   6.700   3.654   1.936  0.1613 -0.2247 -0.1957
25947CL      CL78433   7.652   3.085   1.564  0.2380 -0.3710  0.2584
25948CL      CL78434   5.588   2.829   2.579  0.2143 -0.2160 -0.0042
25949CL      CL78435   7.025   2.699   4.035 -0.3670 -0.1239  0.3070
25950CL      CL78436   7.282   4.467   8.426 -0.0213 -0.0026 -0.4945
25951CL      CL78437   6.709   3.068   7.242 -0.5595 -0.2617 -0.1992
25952CL      CL78438   7.537   3.274   8.773  0.1300  0.0684 -0.0374
25953CL      CL78439   7.016   2.294   8.746  0.1787  0.0818  0.2226
25954CL      CL78440   0.034   2.753  11.592  0.2974 -0.6292  0.5350
25955CL      CL78441   5.853   4.035  12.096 -0.0414  0.2381  0.0078
25956CL      CL78442   7.025   2.722  11.007  0.3565 -0.1251  0.2549
25957CL      CL78443   7.788   3.883  12.270 -0.6028  0.1624 -0.2426
25958CL      CL78444   5.357   6.065   5.397  0.0782  0.3625  0.0227
25959CL      CL78445   6.476   3.309   3.332 -0.3867 -0.1049 -0.1850
25960CL      CL78446   7.762   5.369   6.246 -0.2931 -0.3351  0.1604
25961CL      CL78447   7.668   5.226   6.729 -0.2393 -0.2054  0.5591
25962CL      CL78448   7.774   4.020   9.524  0.0128 -0.5082 -0.0448
25963CL      CL78449   5.698   5.527  10.466  0.1849  0.3039 -0.5182
25964CL      CL78450   6.848   5.595   7.917  0.0500  0.2693  0.2924
25965CL      CL78451   5.575   3.264  10.744  0.1329 -0.3205 -0.2216
25966CL      CL78452   7.933   6.035  10.808 -0.2654 -0.7170  0.3431
25967CL      CL78453   5.377   6.639   9.877 -0.1753  0.2332 -0.6755
25968CL      CL78454   6.927   4.900  11.422 -0.1346 -0.2152  0.0609
25969CL      CL78455   4.905   5.384   0.201  0.3554  0.3725 -0.1217
25970CL      CL78456   5.916   6.855   0.601 -0.0020 -0.0734 -0.4679
25971CL      CL78457   6.826   5.740   0.203 -0.2519 -0.0558  0.1481
25972CL      CL78458   7.189   6.624   0.520  0.0929  0.0394 -0.0208
25973CL      CL78459   7.582   6.787   5.541 -0.1624 -0.0593 -0.2153
25974CL      CL78460   7.894   7.360   3.832  0.4552  0.3064  0.0373
25975CL      CL78461   6.445   5.221   1.780  0.3605  0.2097 -0.3629
25976CL      CL78462   6.785   6.759   4.973  0.0701  0.2372  0.3453
25977CL      CL78463   7.215   7.300   5.761 -0.3396 -0.2004  0.0756
25978CL      CL78464   5.257   0.383   6.399  0.2177 -0.2522 -0.0831
25979CL      CL78465   7.634   7.991   6.326  0.0731  0.1259  0.2155
25980CL      CL78466   7.554   6.278   9.605  0.0654  0.1931  0.1656
25981CL      CL78467   5.623   0.456  10.611  0.0125 -0.3353  0.4179
25982CL      CL78468   5.551   7.095  10.883  0.4245  0.1541 -0.1228
25983CL      CL78469   7.392   5.215  12.285 -0.0398 -0.3865 -0.2224
25984CL      CL78470   7.896   7.074   1.199 -0.3396  0.2232 -0.1964
25985CL      CL78471   6.630   6.525   8.150 -0.1408 -0.0430  0.0604
25986CL      CL78472   0.988   1.708   6.762 -0.0199  0.0070  0.4420
25987CL      CL78473   6.995   7.619   9.828  0.2048 -0.4402  0.1893
25988CL      CL78474   6.975   1.818   1.062 -0.1959 -0.4240  0.5936
25989CL      CL78475   7.857   2.451   3.832  0.0841  0.4117 -0.3133
25990CL      CL78476   6.685   2.539   5.598 -0.1361 -0.5361  0.4347
25991CL      CL78477   0.370   3.464  10.475 -0.0604 -0.1764 -0.1754
25992CL      CL78478   7.984   5.343   1.579  0.0391 -0.3440  0.4437
25993CL      CL78479   1.154   4.416   0.565  0.0335  0.1042 -0.1958
25994CL      CL78480   6.815   5.373   1.093  0.1372  0.1408  0.3247
25995CL      CL78481   7.510   6.451   4.101 -0.0331 -0.0448 -0.1068
25996CL      CL78482   6.918   5.486   5.745 -0.3368  0.1503 -0.1211
25997CL      CL78483   0.503   1.681   8.308 -0.1354  0.3023 -0.5120
25998CL      CL78484   0.755   4.201   8.795 -0.0405 -0.1300 -0.2206
25999CL      CL78485   0.275   5.717   6.476 -0.2782 -0.6003 -0.5376
26000CL      CL78486   7.962   7.355   9.967  0.6682 -0.0175 -0.1238
26001CL      CL78487   6.257   4.921  10.760 -0.0430 -0.1838  0.0930
26002CL      CL78488   5.883   5.236   0.496 -0.1925  0.4187  0.2030
26003CL      CL78489   7.691   7.746   0.904 -0.1125 -0.1558  0.3451
26004CL      CL78490   6.658   7.115   9.518 -0.2965  0.0562 -0.2396
   8.00000   8.00000  12.50000
